8
Lattice="27.152488853   0.0   0.0 0.0   27.152488853    0.0 0.0  0.0    27.152488853" PBC="1 1 1" Properties="species:S:1:pos:R:3:force:R:3" Energy=" -4.28428900509"
Si  0.186349526178  0.0387670607919  0.0906811342934  -3.97858133959  -1.55868216111  -2.41716764059  
Si  1.22593147125  1.175064094  1.23562004693  3.13369128229  4.93777076693  2.03345499659  
Si  0.143590077118  2.84611750457  2.68980770732  -2.71595162215  -2.9178744995  0.0741076202971  
Si  1.38413145955  4.02299860071  4.20478052427  0.524875440828  0.993254829769  -0.505222612935  
Si  2.68871582184  0.173874821169  2.71668779011  1.32448489813  -2.94834221919  -0.565294657272  
Si  4.17612792978  1.51283531452  4.10605954876  -2.88144030954  -1.48153727178  0.343915615217  
Si  2.67735832574  2.83084573517  0.00890571809643  0.701123752907  -2.37166651346  1.71528445898  
Si  4.16219484062  4.13450696443  1.43360674329  -2.4593223264  -1.10434361656  -2.24860865632  
