4
Lattice="2.46 0. 0. 1.23  2.13042249331 0. 0. 0. 30.0" PBC="1 1 1" Properties="species:S:1:pos:R:3:vel:R:3" Energy="-0.07000627"
C   0.1000000000   0.0500000000   0.0000000000  0. 0. 0.
C   1.2300000000   0.7201408311   0.0000000000  0. 0. 0.
C   1.2300000000   0.7101408311   3.2400000000  0. 0. 0.
C   2.4600000000   1.5202816622   3.4400000000  0. 0. 0.
