8
Lattice=" 4.920000  0.0  0.0  2.460000  4.260844986619438  0.0  0.0 0.0 20.0" PBC="1 1 0" Properties="species:S:1:pos:R:3:vel:R:3" Energy="  0.000000"
C   0.000000000000000e+00  0.000000000000000e+00  0.100000000000000e+00  0.000000000000000e+00  0.000000000000000e+00  0.000000000000000e+00
C   1.240000000000000e+00  7.101408311032397e-01  0.000000000000000e+00  0.000000000000000e+00  0.000000000000000e+00  0.000000000000000e+00
C   2.460000000000000e+00  0.000000000000000e+00  0.200000000000000e+00  0.000000000000000e+00  0.000000000000000e+00  0.000000000000000e+00
C   3.690000000000000e+00  7.101408311032397e-01  0.000000000000000e+00  0.000000000000000e+00  0.000000000000000e+00  0.000000000000000e+00
C   1.230000000000000e+00  2.130422493309719e+00  0.100000000000000e+00  0.000000000000000e+00  0.000000000000000e+00  0.000000000000000e+00
C   2.470000000000000e+00  2.840563324412959e+00  0.100000000000000e+00  0.000000000000000e+00  0.000000000000000e+00  0.000000000000000e+00
C   3.690000000000000e+00  2.130422493309719e+00  0.000000000000000e+00  0.000000000000000e+00  0.000000000000000e+00  0.000000000000000e+00
C   4.920000000000000e+00  2.840563324412959e+00  0.200000000000000e+00  0.000000000000000e+00  0.000000000000000e+00  0.000000000000000e+00
