288
Lattice="33.332636 0.03513 0.030855 0.027032 25.652224 -0.000664 0.02708 9e-05 30.380264" PBC="1 1 1" Properties="species:S:1:pos:R:3:force:R:3" Energy=" -5.285072"
Mo   0.160524   0.017426  16.807500  -0.728808  -0.084154   0.060036 
Mo   2.918436   1.572905  16.832498   0.284463   0.784806  -0.049501 
S    1.991837   0.003944  18.352845  -0.075973   0.007404   1.409780 
S    4.754687   1.628334  18.441171   0.208623  -0.521897  -0.317517 
S    4.727475   1.582299  15.196851   0.267305  -0.140062   0.328619 
S    2.001288   0.083865  15.239068  -0.109397  -0.906902  -0.581098 
Mo   5.686977  -0.024290  16.815773  -0.065405   0.957528  -0.293852 
Mo   8.457567   1.579665  16.774889  -0.302950   1.064104  -0.548908 
S    7.599455  -0.003829  18.323419  -0.509874  -0.353336   0.888535 
S   10.256801   1.629180  18.366395   0.502027  -0.808379   0.447669 
S   10.306813   1.607735  15.196109   0.169059   0.188978   0.189872 
S    7.522249   0.045540  15.186999  -0.246775  -0.514425  -0.283653 
Mo  11.257241  -0.013235  16.752264  -0.515025   0.658845   0.650707 
Mo  13.969558   1.667925  16.789387  -0.544572  -0.498913   0.056287 
S   13.093899   0.001242  18.369984  -0.225212   0.206354   0.028517 
S   15.824467   1.602220  18.402154  -0.089124   0.460408  -0.360754 
S   15.748497   1.665808  15.197652   0.845001   0.091486   0.006813 
S   13.096150   0.013505  15.190243   0.064095   0.410845  -0.261880 
Mo  16.753682   0.047181  16.780366  -0.415471  -0.449951   0.365503 
Mo  19.549900   1.622161  16.810292  -0.161660  -0.669545  -0.003251 
S   18.572975  -0.048255  18.401655   0.271018   0.208550  -0.496663 
S   21.360363   1.596394  18.377452   0.762587  -0.146161   0.037097 
S   21.387316   1.577531  15.130720   0.149488   0.460305   0.778438 
S   18.614213   0.121324  15.220235  -0.411843  -0.759218  -0.505338 
Mo  22.314622  -0.001900  16.751032  -0.112714   0.492834   0.272862 
Mo  25.071240   1.618715  16.776844  -0.322091   0.057784  -0.937492 
S   24.169060  -0.044383  18.355551  -0.088950   0.347749  -0.124111 
S   26.851022   1.681780  18.303345   1.199063  -0.581074   0.620027 
S   27.006459   1.604201  15.173437  -0.554028   0.004541   0.096674 
S   24.162491  -0.020364  15.129122   0.054707   0.493512   0.373492 
Mo  27.861825   0.000632  16.779630   0.817132   0.388488  -0.209788 
Mo  30.652761   1.673772  16.846609   0.716827  -1.057152  -0.985388 
S   29.753957   0.002391  18.357664  -0.496637   0.242217   0.461297 
S   32.572675   1.628471  18.426219  -0.634488   0.065773   0.039133 
S   32.463642   1.574642  15.201109   0.456342   0.434474   0.426121 
S   29.856028  -0.008275  15.194333  -0.771865   0.162191   0.901917 
Mo   0.091401   3.162815  16.764515   0.619923  -0.048362  -0.155570 
Mo   2.868043   4.753609  16.809616  -0.067943   0.097298   0.368836 
S    1.938130   3.144420  18.404050  -0.131882   0.228374  -0.102937 
S    4.717854   4.763084  18.441303  -0.247532  -0.080309  -0.267658 
S    4.673532   4.771306  15.199879   0.199271  -0.340763  -0.330537 
S    2.021222   3.142545  15.227951  -0.631707   0.082193  -0.341845 
Mo   5.638974   3.191636  16.796252   0.314878  -0.089972  -0.083307 
Mo   8.366165   4.784608  16.773239   0.888525   0.680686  -0.051206 
S    7.516782   3.175463  18.378660  -0.262271  -0.039942  -0.007797 
S   10.166712   4.843961  18.359506   0.364474  -0.112086   0.867917 
S   10.310932   4.777141  15.219753  -0.809668   0.194602  -0.219140 
S    7.519895   3.243361  15.173378  -0.474517  -0.699925   0.047119 
Mo  11.181893   3.242320  16.866640   0.053557  -0.507948  -1.171043 
Mo  13.981598   4.786712  16.780189  -0.404594   0.370048   0.709442 
S   13.037721   3.231845  18.409558   0.179788   0.115526   0.202816 
S   15.842191   4.917870  18.369722  -0.025351  -0.371623   0.118954 
S   15.770873   4.804955  15.200856   0.917947   0.657816  -0.146639 
S   12.939734   3.267787  15.166724   0.611369  -0.497395   0.513804 
Mo  16.753138   3.268406  16.793768  -0.579093  -1.022485   0.073493 
Mo  19.541849   4.751579  16.827632   0.045963   1.023653  -0.503231 
S   18.547867   3.152330  18.375498   0.519922   0.410619   0.715878 
S   21.407839   4.756749  18.384465  -0.030743  -0.011952   0.216886 
S   21.434246   4.788755  15.166820  -0.371572   0.024813   0.806380 
S   18.603511   3.175918  15.224321   0.016182   0.414424  -0.288050 
Mo  22.372385   3.191212  16.784236  -0.715735  -0.105123   0.073766 
Mo  25.134956   4.761652  16.812719  -0.386028   0.880999  -0.507688 
S   24.198115   3.240644  18.498731  -0.189016  -0.546249  -1.226706 
S   26.981798   4.798750  18.302338   0.457800   0.234733   0.805080 
S   26.987877   4.857162  15.174201  -0.151903  -0.451892   0.077997 
S   24.167131   3.266964  15.160047   0.331573  -0.624940   0.340673 
Mo  27.930956   3.225337  16.746744  -0.395674  -0.112841  -0.101456 
Mo  30.634375   4.802116  16.828796   0.289389   0.234189   0.303282 
S   29.724233   3.195016  18.424535  -0.333622   0.383582   0.139531 
S   32.508847   4.786906  18.376103  -0.068329   0.497893   0.183867 
S   32.482446   4.802257  15.220306  -0.007636  -0.116097  -0.212375 
S   29.777688   3.272384  15.164347  -0.062670  -0.586823   0.322830 
Mo   0.050432   6.398709  16.726347   0.372402  -0.707070   0.497666 
Mo   2.807715   7.958282  16.756006   0.290382   0.136559   0.010684 
S    1.898118   6.344217  18.371181  -0.123778   0.340044  -0.073166 
S    4.661724   7.963490  18.341866   0.014884  -0.081504   0.213190 
S    4.674074   7.888021  15.199482   0.024847   0.178012  -0.474816 
S    1.934276   6.344491  15.200462  -0.131270  -0.169016  -0.406393 
Mo   5.570459   6.303186  16.792577   0.972418   1.275147   0.303051 
Mo   8.362315   8.066385  16.784785   0.534409  -1.165615   0.015496 
S    7.456096   6.388244  18.385477  -0.092678   0.208826  -0.271037 
S   10.245463   8.047522  18.351532  -0.310494  -0.555660   0.512226 
S   10.262326   7.968133  15.156566  -0.536456   0.004041   0.321329 
S    7.475173   6.414887  15.207486  -0.342738  -0.015107   0.002079 
Mo  11.168040   6.387176  16.793877   0.258893   0.545405  -0.031585 
Mo  13.960818   7.997097  16.761236   0.318203   0.223877   0.733674 
S   13.056050   6.399461  18.370596  -0.158488  -0.001001   0.122705 
S   15.860574   8.108595  18.397270  -0.502316  -0.492495  -0.359036 
S   15.781722   8.031112  15.152475   0.400319  -0.098140   0.062409 
S   13.067512   6.350543  15.230990  -0.468580   0.359563  -0.621872 
Mo  16.783671   6.500698  16.787248  -0.787177  -1.001067  -0.057638 
Mo  19.576519   7.955874  16.792280   0.921098   0.379509   0.640854 
S   18.607886   6.422385  18.429323   0.252100  -0.248303  -0.432485 
S   21.530136   7.967508  18.381591  -0.980434   0.020631   0.350719 
S   21.499760   7.998017  15.236935  -0.363151  -0.383501  -0.093517 
S   18.617732   6.399671  15.224467   0.242261  -0.393480  -0.202515 
Mo  22.385861   6.347391  16.833672  -0.253277   0.161859  -0.795791 
Mo  25.090728   8.000532  16.793741   0.837996  -0.570217   0.203477 
S   24.205410   6.321580  18.466859   0.162185   0.570282  -0.728719 
S   26.922005   7.950361  18.363566   0.448173   0.278720   0.339795 
S   27.025362   7.997815  15.152110  -0.607159   0.331160   0.643994 
S   24.205879   6.368351  15.192824   0.022961   0.035654   0.401251 
Mo  27.951673   6.435017  16.760540  -1.097326  -0.719784   0.323038 
Mo  30.607446   7.988469  16.765290   0.961415   0.191353  -0.286643 
S   29.713214   6.449115  18.447321   0.243112  -0.258516  -0.492850 
S   32.492333   8.063782  18.318005  -0.231852  -0.244204  -0.034011 
S   32.466537   7.964958  15.083096  -0.339542  -0.136003   0.307441 
S   29.761006   6.323353  15.188282  -0.017448   0.677962  -0.271756 
Mo   0.045636   9.545583  16.609448   0.296545   0.489105   0.280205 
Mo   2.839577  11.171026  16.694101   0.202272  -0.100623   0.717865 
S    1.808629   9.550298  18.278563   0.528627   0.542760   0.033293 
S    4.696168  11.157836  18.284357  -0.315858   0.076276   0.148456 
S    4.714603  11.199515  15.115057  -0.152406  -0.685213  -0.003286 
S    1.955290   9.605119  15.114412  -0.043255  -0.809759  -0.335145 
Mo   5.607431   9.530686  16.727212  -0.031301   0.947325   0.255158 
Mo   8.375686  11.213016  16.825234   0.467470   0.109176  -1.073759 
S    7.447444   9.681046  18.374667  -0.360512  -0.748099   0.391638 
S   10.281089  11.194072  18.374125  -0.332051   0.194340   0.066600 
S   10.225794  11.152374  15.153096  -0.202990   0.211728   0.340891 
S    7.456828   9.642360  15.195484   0.190961  -0.277499  -0.309995 
Mo  11.114271   9.588371  16.763342   0.636018   0.143525  -0.349162 
Mo  14.017086  11.156876  16.714944  -0.008811   0.439179  -0.320131 
S   12.980880   9.642188  18.294387   0.508784  -0.537232   0.524837 
S   15.910514  11.222871  18.320652  -0.575553  -0.674929   0.250463 
S   15.894983  11.187345  15.092340  -0.345734  -0.541139   0.124053 
S   12.960045   9.557718  15.208334   0.449273   0.167266  -0.667593 
Mo  16.784663   9.587608  16.735014   0.099030   0.714626  -0.143379 
Mo  19.627013  11.182803  16.732041  -0.913912   0.537968   0.009197 
S   18.640420   9.637243  18.330613   0.106840  -0.456535   0.093882 
S   21.373161  11.176169  18.363040   0.394730   0.048765   0.583146 
S   21.498881  11.154148  15.169362  -0.212413   0.008234  -0.101905 
S   18.708908   9.559785  15.205653  -0.263058  -0.061005  -0.476615 
Mo  22.369649   9.606488  16.817304   0.317267  -0.222484   0.043141 
Mo  25.104119  11.283747  16.881845   0.314608  -1.031660  -0.844718 
S   24.206040   9.621888  18.443592  -0.047037  -0.094065  -0.240509 
S   26.971872  11.185074  18.413448   0.413514   0.364707  -0.101744 
S   26.949844  11.260362  15.213983  -0.019781  -0.499415   0.696912 
S   24.226281   9.609642  15.254457   0.036699   0.574969  -0.143934 
Mo  27.925391   9.566340  16.829089  -0.984364   1.070316  -0.909617 
Mo  30.680395  11.156678  16.714184   0.157805   0.072867  -0.760798 
S   29.782360   9.621572  18.399715  -0.157430  -0.199317  -0.210644 
S   32.527727  11.169318  18.267309   0.003797   0.139629   0.028086 
S   32.502001  11.183076  15.016969  -0.267699  -0.007535   0.522240 
S   29.696140   9.575308  15.129676   0.027265  -0.055855   0.382256 
Mo   0.074397  12.748344  16.624998   0.612490   0.506532   0.229243 
Mo   2.890587  14.420948  16.639244  -0.904884  -0.496412  -0.108386 
S    1.918260  12.824315  18.261832   0.070626  -0.074075  -0.452786 
S    4.688075  14.427577  18.205856   0.269007   0.258421   0.642015 
S    4.734772  14.344633  15.033764   0.024183   0.655187   0.157257 
S    1.991353  12.732074  15.070095  -0.475384   0.499414  -0.053640 
Mo   5.586445  12.795857  16.703603   1.103877  -0.154834  -0.501711 
Mo   8.510953  14.354944  16.718850  -1.359636   0.083445  -0.522733 
S    7.403019  12.853195  18.329073   0.360184  -0.054896   0.101694 
S   10.327335  14.355208  18.312656   0.073831   0.236667  -0.020024 
S   10.311262  14.368584  15.096531   0.258064  -0.302762   0.177891 
S    7.512393  12.702469  15.105697  -0.207273   0.672019   0.708131 
Mo  11.225264  12.744075  16.729632   0.019887   0.119714  -0.424589 
Mo  13.950160  14.373988  16.774439   0.371173  -0.228712  -0.339342 
S   13.077246  12.678984  18.340838  -0.068113   0.658703  -0.173645 
S   15.854445  14.383030  18.355539  -0.148081  -0.147704  -0.672467 
S   15.812029  14.343257  15.189711  -0.063898   0.045160  -0.152228 
S   13.069464  12.745441  15.079895   0.032064   0.190586   0.855909 
Mo  16.809069  12.703678  16.723419  -0.088931   1.971692  -0.034831 
Mo  19.548088  14.405745  16.739056  -0.834006  -0.067037  -0.688641 
S   18.660823  12.873654  18.320069  -0.122028  -1.151520  -0.026283 
S   21.345251  14.413983  18.324415   0.742383  -0.014386   0.090325 
S   21.403951  14.327708  15.189484   0.143539   0.130941  -0.480249 
S   18.624417  12.754498  15.077792   0.485398   0.052541   0.749609 
Mo  22.335138  12.757739  16.787004   0.276868   0.742522   0.500338 
Mo  25.169639  14.443397  16.774244  -0.543480   0.003055   0.528746 
S   24.175816  12.899259  18.458636  -0.017127  -0.160880  -0.649758 
S   27.004428  14.479588  18.412161   0.184421  -0.486619  -0.544524 
S   27.032450  14.455874  15.188920  -0.142862  -0.514490  -0.094597 
S   24.201243  12.832151  15.221367   0.096468  -0.042819   0.037213 
Mo  27.929225  12.822316  16.784067  -0.102458   0.028044   0.254902 
Mo  30.646138  14.442625  16.725855   0.788217  -0.206826   0.191921 
S   29.845764  12.736511  18.287705  -0.517802   0.643383   0.509582 
S   32.536847  14.399547  18.284802  -0.151726   0.246078  -0.216344 
S   32.507370  14.489089  15.154008  -0.335429  -0.456797  -0.741920 
S   29.787317  12.798193  15.137361  -0.594206   0.134739   0.136473 
Mo   0.090943  16.052963  16.649248   0.105388  -0.741255   0.708971 
Mo   2.950911  17.632873  16.623132  -0.208433  -0.662561   1.083752 
S    1.920917  16.039489  18.209583   0.641973   0.026966   0.164826 
S    4.806091  17.532911  18.250108  -0.245281   0.559413   0.040909 
S    4.811591  17.671335  15.085091   0.029322  -0.273594  -0.540188 
S    1.905934  16.004291  15.078863   0.703739   0.356895  -0.577588 
Mo   5.694668  16.016595  16.620202   0.464136  -0.919845   0.092212 
Mo   8.514791  17.596179  16.680267  -0.766645  -0.046800   0.426947 
S    7.549397  15.960416  18.287648  -0.070252   0.272058  -0.555046 
S   10.321137  17.601004  18.320743  -0.027467   0.044777  -0.371358 
S   10.331125  17.560833  15.083934   0.099192   0.573371   0.096251 
S    7.610029  15.961203  15.071819  -0.073735  -0.054572   0.330695 
Mo  11.220873  15.980206  16.689320   0.470857   0.117322   0.385046 
Mo  14.021052  17.638055  16.686235  -0.647079  -0.125816   0.889238 
S   13.034854  16.046366  18.338481   0.393546  -0.066804  -0.492691 
S   15.895729  17.668627  18.259466  -0.277182  -0.202461   0.002826 
S   15.860297  17.645577  15.162964  -0.096056  -0.418750  -1.205813 
S   13.114339  15.995781  15.101162  -0.267521  -0.136427   0.426453 
Mo  16.744636  15.994794  16.692673   1.018375  -0.270078   0.927774 
Mo  19.561626  17.499904  16.669588  -0.245741   1.080873  -0.019683 
S   18.586614  16.002030  18.404812   0.055689  -0.057874  -1.395271 
S   21.439826  17.573327  18.244004  -0.258681   0.332983  -0.108925 
S   21.443991  17.525493  15.046190  -0.161135   0.210321   0.293473 
S   18.597597  15.919210  15.053884  -0.078094   0.187694   0.583655 
Mo  22.368021  15.974095  16.689847  -0.334732  -0.133361   0.357439 
Mo  25.129311  17.611417  16.772285   0.275677   0.401245  -0.639583 
S   24.160479  16.052194  18.345083   0.226570  -0.274006   0.072339 
S   26.967107  17.605090  18.312078   0.246384   0.307514   0.619744 
S   26.999946  17.647114  15.158658   0.052672  -0.085715   0.418753 
S   24.231964  16.033581  15.155583   0.209090  -0.277427  -0.139738 
Mo  27.953216  16.021488  16.756441  -0.579041   0.647281   0.035138 
Mo  30.676814  17.684050  16.735840   0.062283  -0.134201   0.370545 
S   29.769825  16.063497  18.346865   0.187990  -0.117661   0.022063 
S   32.548571  17.616239  18.304838  -0.084161   0.540679   0.347844 
S   32.557898  17.769125  15.183607  -0.347037  -0.282434  -0.782006 
S   29.773746  16.094746  15.151280  -0.108697  -0.306917  -0.237450 
Mo   0.230236  19.215933  16.737562  -0.175014   0.066986   0.485028 
Mo   2.927730  20.816199  16.733491  -0.131695   0.475710   0.712054 
S    2.097150  19.165149  18.346117  -0.186378  -0.038310  -0.365981 
S    4.741492  20.864437  18.289133   0.668090  -0.466995   0.460798 
S    4.749766  20.872450  15.165935   0.371539  -0.187221  -0.359928 
S    2.040609  19.241364  15.112955  -0.196488   0.230095  -0.466043 
Mo   5.717293  19.223129  16.721013  -0.445190   0.142304  -0.250322 
Mo   8.510853  20.828221  16.668119  -0.686527   0.115776   0.244245 
S    7.532302  19.224088  18.273838   0.661369  -0.186906   0.056363 
S   10.322270  20.858550  18.259933   0.219112  -0.075295   0.203531 
S   10.383058  20.897373  15.109338  -0.247932  -0.748432  -0.358458 
S    7.555042  19.195211  15.105411   0.115352   0.083751  -0.077364 
Mo  11.242584  19.216026  16.716369   0.176425   0.004106  -0.233615 
Mo  14.052516  20.842002  16.685772  -0.751834   0.332338   0.749524 
S   13.112661  19.257116  18.329162  -0.120817  -0.181891  -0.523548 
S   15.917895  20.840686  18.243850  -0.147454  -0.034905   0.373145 
S   15.834936  20.837561  15.085670   0.397551   0.248676  -0.636994 
S   13.075410  19.262604  15.116678   0.092292  -0.295907  -0.155294 
Mo  16.810014  19.259199  16.636646   0.020762  -0.646646   0.888308 
Mo  19.564444  20.796895  16.607117   0.453552  -0.226951   0.747865 
S   18.632683  19.141179  18.277557   0.448811   0.536924  -0.880353 
S   21.463803  20.819083  18.218772  -0.501902  -0.029470  -0.147355 
S   21.504581  20.895320  15.098789  -0.426628  -0.450105  -0.531318 
S   18.623981  19.156003  15.023731   0.459598  -0.015135   0.431590 
Mo  22.372114  19.188005  16.629430  -0.124925   0.232587   0.096396 
Mo  25.124498  20.849503  16.699307   0.217854   0.554568   0.411846 
S   24.144699  19.248405  18.274696   0.191912  -0.066307   0.243073 
S   26.916752  20.865276  18.353244   0.556285  -0.003119  -0.028093 
S   27.033615  20.878915  15.195398   0.152386  -0.055706  -0.178252 
S   24.341726  19.233226  15.146289  -0.893197  -0.446814  -0.684615 
Mo  27.923707  19.253945  16.794493  -0.183850  -0.144062  -0.570240 
Mo  30.750584  20.820667  16.822893  -0.586936   0.293636   0.216875 
S   29.748123  19.226978  18.406131   0.169746   0.016860  -0.303636 
S   32.668871  20.804162  18.380664  -0.466815   0.262793   0.304220 
S   32.600094  20.887372  15.255918   0.283597   0.345514  -0.214929 
S   29.741533  19.248758  15.101018   0.175906   0.410464   1.062952 
Mo   0.218784  22.476932  16.841397  -0.365556  -0.481830  -0.302704 
Mo   2.950936  24.087590  16.841249   0.093773  -0.787753  -0.842324 
S    2.039603  22.405344  18.439012   0.246341   0.143139  -0.474047 
S    4.798130  24.022507  18.395000   0.226733   0.011916   0.137289 
S    4.744444  24.120186  15.167668   0.192865  -0.431129   0.412285 
S    2.070350  22.485447  15.228825  -0.481305   0.171891  -0.290830 
Mo   5.712123  22.459563  16.740840  -0.400231   0.042703  -0.189798 
Mo   8.474470  24.052462  16.736861  -0.012288  -0.489616  -1.043468 
S    7.580735  22.414635  18.307207  -0.041613  -0.089371  -0.059520 
S   10.292889  23.990780  18.278248   0.617989   0.209071   0.468482 
S   10.354140  24.099690  15.133247  -0.291011  -0.113347  -0.219819 
S    7.522033  22.401852  15.107304   0.236408   0.618304   0.118068 
Mo  11.296282  22.462203  16.669202  -0.691469  -0.213005   0.314065 
Mo  14.043298  24.087610  16.765008  -0.295305  -1.026441  -0.035991 
S   13.020448  22.418309  18.330057   1.088960   0.169320  -0.294588 
S   15.810701  23.987659  18.391587   1.007705   0.149721  -0.773227 
S   15.902979  24.105068  15.162031  -0.165497   0.004277   0.034470 
S   13.163997  22.476867  15.104254   0.042417   0.164102   0.139060 
Mo  16.836077  22.408979  16.666832  -1.048332   0.905247   0.437585 
Mo  19.483495  24.016078  16.717176   1.211096   0.708554   0.149899 
S   18.661665  22.387432  18.241388  -0.077813  -0.454362   0.385288 
S   21.418966  24.044228  18.314709  -0.538652  -0.182269  -0.027987 
S   21.374507  24.124763  15.185774  -0.084297  -0.382809  -0.692751 
S   18.614666  22.422789  15.039622   0.321665   0.126096   0.049329 
Mo  22.366784  22.500698  16.684115   0.240914  -0.779978   0.275536 
Mo  25.123766  24.042465  16.732838   0.017364  -0.163679  -0.015832 
S   24.220765  22.448585  18.306454  -0.477231  -0.112865  -0.034205 
S   26.979750  24.020770  18.325422  -0.123256   0.283649   0.521677 
S   26.966979  24.057670  15.207091   0.702393  -0.102408  -0.464566 
S   24.241072  22.470041  15.055142  -0.196712  -0.100586   0.566341 
Mo  27.984767  22.462921  16.784923  -0.471473  -0.374641   0.003615 
Mo  30.763236  24.039066  16.860176  -0.074424  -0.073003  -0.313704 
S   29.778021  22.460382  18.493381   0.343731  -0.423376  -1.021463 
S   32.629276  24.112846  18.504213  -0.271382  -0.152630  -0.592755 
S   32.616946  24.122194  15.286529  -0.025892  -0.494648  -0.345017 
S   29.876295  22.401753  15.195274  -0.119850   0.635760   0.669994 
