288
Lattice="33.335556 0.035039 0.030867 0.026962 25.65043 -0.000664 0.02709 9e-05 30.455712 " PBC="1 1 1" Properties="species:S:1:pos:R:3:force:R:3" Energy=" -5.285384"
Mo   0.105680  -0.057561  16.923411  -1.184615  -0.012514  -0.414257 
Mo   2.871367   1.537639  16.847572   0.169979   0.369068  -0.327367 
S    1.970488  -0.052467  18.410105   0.125720  -0.139039   0.982966 
S    4.730480   1.553055  18.395919   0.141990   0.134017  -0.096543 
S    4.667723   1.550414  15.174027  -0.079921   0.126943   0.151672 
S    1.925445  -0.048241  15.290967  -0.263099  -0.186210  -0.344190 
Mo   5.618852  -0.028733  16.753828  -0.643095  -0.161806   0.535658 
Mo   8.342940   1.607768  16.733895   0.436592   0.217541   0.287232 
S    7.436316  -0.000359  18.292716   0.546380  -0.259614   0.619473 
S   10.179550   1.607635  18.327567   0.269005  -0.586801  -0.146662 
S   10.206347   1.618894  15.106980  -0.205909  -0.026040  -0.004726 
S    7.427303   0.052736  15.177162  -0.069663  -0.427380  -0.887768 
Mo  11.155831   0.015397  16.663567  -0.233101   0.218964   0.965978 
Mo  13.925398   1.552481  16.712195   0.524243   0.677746   0.602075 
S   13.030500  -0.007995  18.319911  -0.750576  -0.125791  -0.340138 
S   15.801972   1.574953  18.391685  -0.666812  -0.283778   0.083926 
S   15.802491   1.626092  15.183603   0.147061  -0.524858  -0.247572 
S   13.004853   0.052286  15.067021  -0.184976  -0.503310  -0.028937 
Mo  16.676272  -0.007953  16.782727   0.065366  -0.373907  -0.102590 
Mo  19.436950   1.615517  16.816807   1.315146  -1.075742   0.751881 
S   18.578756  -0.023036  18.407934  -0.474709  -0.232554  -0.206286 
S   21.360245   1.613802  18.380769  -0.721506  -0.137852   0.379904 
S   21.255820   1.512424  15.186765   0.455434   0.868303   0.479375 
S   18.541621  -0.025303  15.272840   0.152378  -0.101826  -0.700759 
Mo  22.219988  -0.029311  16.828791  -0.379478   0.319073  -0.242636 
Mo  25.024727   1.588248  16.880177  -0.173399  -0.250581  -0.062884 
S   23.998943  -0.017417  18.451325   0.762258  -0.180588  -0.198563 
S   26.920248   1.638453  18.431668  -0.560377  -0.426565   0.615246 
S   26.857394   1.562419  15.273004   0.030123   0.286749  -0.405566 
S   24.062151   0.015263  15.252832   0.410396  -0.323081   0.170634 
Mo  27.792417   0.034565  16.865298   0.508488  -1.087756  -0.099158 
Mo  30.604307   1.599265  16.940978  -0.332596  -0.830187  -0.479901 
S   29.644858  -0.057641  18.464267   0.075787   0.555669   0.351070 
S   32.429557   1.623064  18.517039   0.720975  -0.419721   0.067626 
S   32.417284   1.529289  15.362597   0.843127   0.427356  -0.059605 
S   29.701960   0.017084  15.259218  -0.123602  -0.188648   0.799033 
Mo   0.138375   3.129234  16.879136  -1.083076  -0.781895   0.039154 
Mo   2.797446   4.769957  16.839834  -0.032943  -0.426540  -0.720203 
S    2.011435   3.120634  18.486672  -0.411952   0.100582  -0.301329 
S    4.626461   4.805713  18.337709   0.826327  -0.313637   0.566711 
S    4.592149   4.734875  15.211778   0.238650   0.628661  -0.258378 
S    1.913734   3.096308  15.238728   0.129843   0.280517   0.126490 
Mo   5.593276   3.184568  16.745886  -0.310706  -0.362020   0.855886 
Mo   8.360093   4.775525  16.796179  -0.767079  -0.065250  -0.749653 
S    7.417069   3.203346  18.377539   0.136409  -0.199048  -0.111292 
S   10.186711   4.813621  18.348688   0.701563  -0.215037  -0.003893 
S   10.142209   4.751837  15.153616   0.528763   0.346317   0.147080 
S    7.400708   3.192772  15.152532   0.268405   0.267011   0.005202 
Mo  11.091888   3.169723  16.740598   0.789523   0.439027  -0.276744 
Mo  13.927957   4.782656  16.729878   0.926007  -0.524373   0.169205 
S   12.964202   3.115138  18.315325   0.171145   0.513898  -0.191868 
S   15.841734   4.790768  18.316979  -0.597096   0.272486   0.364216 
S   15.898688   4.737306  15.205796  -0.581965   0.177563  -0.078408 
S   13.035476   3.180238  15.127239  -0.557982   0.015909   0.235732 
Mo  16.744498   3.127457  16.830880  -0.612752   0.911155  -0.749636 
Mo  19.479146   4.817933  16.814720   1.184758  -0.435013  -0.176084 
S   18.509268   3.186838  18.414926   0.758719   0.328493   0.557632 
S   21.416321   4.833055  18.399372  -1.003701  -0.307535   0.157332 
S   21.427240   4.848755  15.189355  -0.792119  -0.478524   0.554800 
S   18.576878   3.154012  15.270932  -0.066541   0.618340  -0.987391 
Mo  22.240984   3.198722  16.818099   0.876887   0.028304  -0.433818 
Mo  25.115659   4.742426  16.908646  -0.660347   0.469470  -0.396723 
S   24.133137   3.174567  18.500724  -0.487702  -0.071352  -0.475979 
S   26.916822   4.840498  18.485625   0.425156  -0.871417  -0.076170 
S   26.956490   4.785497  15.247964  -0.320301  -0.060760   0.160976 
S   24.137103   3.227058  15.290347   0.016620  -0.432274  -0.146658 
Mo  27.822080   3.164090  16.838013   0.071883   0.840270   0.179942 
Mo  30.658489   4.734042  16.911372  -0.037268  -0.107488  -0.077197 
S   29.608186   3.164117  18.474998   0.367588   0.201776   0.360092 
S   32.489210   4.689908  18.530882   0.209305   0.135285  -0.075185 
S   32.534757   4.711053  15.275119  -0.349441  -0.121958   0.445317 
S   29.713775   3.150016  15.299540   0.005260   0.078450  -0.145511 
Mo   0.120187   6.226230  16.890050  -1.269352   1.208056   0.384510 
Mo   2.762781   7.967588  16.875478   0.385599  -0.232283  -0.639963 
S    1.958659   6.351574  18.473954  -0.325724  -0.208359   0.287671 
S    4.733851   7.962831  18.366867  -0.451676   0.130875   0.312076 
S    4.523676   7.870766  15.190384   0.420954   0.407091  -0.174237 
S    1.831935   6.371976  15.225249   0.583102  -0.262324   0.293329 
Mo   5.598087   6.389675  16.775272  -0.439023  -1.188994  -0.367142 
Mo   8.461066   7.867815  16.675344  -0.855041   0.321339   0.517035 
S    7.427389   6.342082  18.402522   0.484343   0.467496  -0.512858 
S   10.278089   7.987102  18.277395   0.206219   0.102034  -0.217776 
S   10.281095   7.906269  15.017510  -0.112257  -0.424259   0.483346 
S    7.394487   6.302562  15.134483   0.306918   0.135874   0.131028 
Mo  11.215569   6.364002  16.729236  -0.957515  -0.261599  -0.375808 
Mo  13.898836   7.988348  16.657470   0.790462  -0.260175   0.678067 
S   13.094107   6.401970  18.309388  -0.576182  -0.112017   0.100135 
S   15.788185   8.034517  18.265837  -0.080443   0.081824   0.007811 
S   15.774902   7.940995  15.103608   0.420079  -0.075103  -0.198288 
S   12.988776   6.301662  15.091002   0.451893   0.401901   0.000549 
Mo  16.759111   6.416469  16.744246   0.016457  -0.315358   0.027804 
Mo  19.597083   8.035395  16.737396  -0.340298  -0.682418  -0.100487 
S   18.629388   6.460534  18.354361  -0.410141   0.108011   0.123677 
S   21.385331   8.027599  18.390062   0.102782   0.262872   0.111200 
S   21.468681   8.019126  15.181469   0.077233  -0.053825   0.060435 
S   18.631751   6.419223  15.197412  -0.044040  -0.187757  -0.337038 
Mo  22.310177   6.413657  16.833965   0.780806  -0.223537  -0.633975 
Mo  25.122007   7.951716  16.835195  -0.864625  -0.141901   0.151680 
S   24.114109   6.313850  18.494931   0.430400   0.767735  -0.706255 
S   26.924398   7.954345  18.442343   0.218198   0.119272   0.191557 
S   26.987544   7.963130  15.242825  -0.159123   0.126016   0.244462 
S   24.228692   6.267716  15.256165  -0.314352   0.832006   0.352945 
Mo  27.860743   6.366331  16.866980   0.007689   0.090476   0.180126 
Mo  30.674228   7.933717  16.946296  -0.568018  -0.090043  -0.854757 
S   29.714377   6.367333  18.470620  -0.187174  -0.442076   0.529141 
S   32.482018   7.958097  18.486540   0.462208  -0.930834   0.630345 
S   32.465543   7.816063  15.338973   0.399472   0.708136  -0.040977 
S   29.728024   6.338399  15.367742   0.264992   0.174896  -0.751829 
Mo   0.016351   9.506831  16.894921   0.366685   0.164830  -0.487294 
Mo   2.831747  11.095565  16.848300  -0.210615   0.418497   0.184340 
S    1.857240   9.548887  18.501048   0.267938   0.123140  -0.233902 
S    4.782489  11.043000  18.341970  -0.270963   0.494894  -0.121854 
S    4.625159  11.058641  15.163380  -0.006856   0.412728   0.104726 
S    1.800473   9.580077  15.267618   0.258494  -0.471908   0.022384 
Mo   5.624547   9.457558  16.686489  -0.266275   0.414420   0.547787 
Mo   8.363357  11.095414  16.628063  -0.377796   0.614414  -0.125322 
S    7.518890   9.492612  18.256370   0.005521  -0.089886  -0.162060 
S   10.200204  11.152638  18.162095   0.581995   0.116139  -0.049903 
S   10.178886  11.148878  14.976827   0.103573  -0.409615  -0.022432 
S    7.447268   9.410720  15.110033   0.218905   0.269837  -0.613746 
Mo  11.154262   9.550931  16.580325  -0.493106   0.271747   0.859199 
Mo  13.949981  11.176446  16.613497  -0.242826   0.001576  -0.014769 
S   12.944738   9.638298  18.249306   0.360492  -0.251965  -0.383562 
S   15.806767  11.134852  18.191847   0.118103   0.085549   0.147812 
S   15.827439  11.095007  15.026735   0.133208   0.362664   0.083063 
S   12.996327   9.526661  15.077693   0.334728   0.510770  -0.871752 
Mo  16.807395   9.555061  16.639405  -0.814179  -0.030674  -0.367538 
Mo  19.568478  11.157774  16.666451  -0.544204   0.438831   0.421767 
S   18.568250   9.550929  18.273432   0.488218   0.764938   0.256188 
S   21.351935  11.235849  18.314737   0.052146  -0.173643   0.406171 
S   21.425485  11.189525  15.171474   0.454248   0.020005  -0.508125 
S   18.744443   9.580684  15.059695  -0.656903  -0.305130   0.044597 
Mo  22.347659   9.622432  16.792928  -0.071280  -0.470879   0.693916 
Mo  25.110428  11.135432  16.871025   0.422837   0.403059  -0.457223 
S   24.214513   9.584214  18.465302  -0.591401  -0.424773  -0.396577 
S   26.946049  11.113714  18.499035   0.079402   0.533476  -0.374593 
S   26.992836  11.128495  15.272505  -0.247678   0.392642   0.173845 
S   24.146401   9.579516  15.233498   0.902229  -0.155752   0.063476 
Mo  27.904615   9.564453  16.875458   0.323382  -0.440199   0.407701 
Mo  30.655649  11.163585  16.930583  -0.579003   0.091702  -0.756679 
S   29.824894   9.553157  18.505936  -1.047825   0.071623   0.223094 
S   32.451361  11.161263  18.522407   0.388353   0.198062  -0.108122 
S   32.424176  11.098343  15.302929   0.323574   0.545352  -0.163016 
S   29.782276   9.526598  15.324278  -0.135673   0.205048  -0.088734 
Mo   0.031663  12.720591  16.844229  -0.122550  -0.116638   0.122820 
Mo   2.837227  14.350792  16.815026   0.354092  -0.357145  -0.326635 
S    1.871793  12.700518  18.453738   0.655870   0.330084  -0.518491 
S    4.825366  14.408261  18.283674  -0.708943  -0.480761   0.346307 
S    4.729961  14.363299  15.156179  -0.879627  -0.068108   0.131694 
S    1.891862  12.688538  15.247197   0.049866   0.282833   0.202857 
Mo   5.615834  12.709833  16.723215   0.027615  -0.294547   0.197671 
Mo   8.346776  14.258188  16.597894   0.496115   0.391605   0.496725 
S    7.497715  12.704737  18.319104  -0.099521  -0.263918  -0.926710 
S   10.267619  14.284466  18.143981  -0.377852   0.351414  -0.141807 
S   10.184172  14.313763  14.987393  -0.053455   0.168756  -0.330566 
S    7.341893  12.684915  15.025112   0.348684  -0.324031   0.247152 
Mo  11.174719  12.737713  16.522686   0.341541  -0.264558   0.603779 
Mo  13.943420  14.342014  16.598198   0.095230   0.533200   0.409613 
S   12.994647  12.818466  18.227055   0.053009  -0.494592  -0.663810 
S   15.887395  14.226931  18.229315  -0.833920   0.945019  -0.344395 
S   15.778561  14.305051  15.011800   0.593116   0.088890   0.273497 
S   13.091980  12.808312  14.929793  -0.492874  -0.603120   0.635275 
Mo  16.776004  12.713204  16.621606   0.264733  -0.231288  -0.615603 
Mo  19.484655  14.366712  16.659852  -0.074776   0.096652  -0.550419 
S   18.637522  12.700621  18.288140  -0.593890   0.424902  -0.659278 
S   21.254748  14.408958  18.281221   0.455184  -0.178324   0.364801 
S   21.428714  14.361260  15.142577  -0.379801   0.176458  -0.365573 
S   18.649034  12.742174  14.973983  -0.165956   0.003641   0.986972 
Mo  22.304675  12.808451  16.759228   0.587853  -0.371329   0.201998 
Mo  25.025046  14.410364  16.823958   0.882215  -0.571219   1.328384 
S   24.157145  12.740061  18.436014  -0.423185   0.352423  -0.419291 
S   26.899259  14.381707  18.464917  -0.233998   0.280219   0.067738 
S   26.940043  14.404549  15.334561   0.152652   0.478713  -0.250031 
S   24.253389  12.732669  15.226919  -0.435548   0.190202   0.167438 
Mo  27.837839  12.793573  16.890521  -0.517747  -0.792053   0.519949 
Mo  30.613089  14.455058  16.966188  -0.370212  -0.445321  -1.101859 
S   29.688588  12.769551  18.446388  -0.021228   0.306499   0.936935 
S   32.492337  14.401315  18.506354   0.031779  -0.126451  -0.210447 
S   32.388408  14.378735  15.302791   0.277108   0.030051   0.111734 
S   29.651711  12.804947  15.379162   0.881842   0.211953  -0.460805 
Mo   0.052105  15.952196  16.830012   0.285578  -0.420639   0.051789 
Mo   2.852086  17.570346  16.825005  -0.257936  -0.153869  -0.826050 
S    1.926533  15.932017  18.420623   0.145052   0.143603  -0.102052 
S    4.762559  17.571594  18.312749  -0.010892   0.294089   0.405857 
S    4.663103  17.647376  15.163591  -0.399043  -0.674190  -0.363023 
S    1.886584  15.953400  15.206482   0.197128  -0.090419   0.477670 
Mo   5.653005  16.008309  16.686471   0.293155  -0.342076  -0.253721 
Mo   8.382695  17.556447  16.568713   0.193291  -0.094186   0.081974 
S    7.538019  15.888708  18.240503  -0.010889   0.593310  -0.435345 
S   10.200396  17.571050  18.152847   0.370730   0.008435  -0.168942 
S   10.237045  17.574046  14.948334  -0.169637   0.152634   0.135835 
S    7.464528  15.903460  15.024262  -0.290782   0.240682   0.080258 
Mo  11.119452  15.950983  16.542506   0.082801  -0.244120   0.163651 
Mo  13.900490  17.529395  16.597581  -0.015372  -0.224115  -0.209934 
S   12.903911  15.951499  18.192328   0.542545  -0.211628  -0.353388 
S   15.771924  17.449543  18.174674  -0.536998   0.471862   0.459672 
S   15.775033  17.562116  15.043076  -0.057439  -0.227623  -0.235458 
S   12.992775  15.922557  14.941866   0.127994   0.161575   0.609078 
Mo  16.725106  15.923744  16.606745   0.115384  -0.395171  -0.185844 
Mo  19.474754  17.605132  16.675176  -0.853243  -1.177445  -0.811706 
S   18.519018  15.961102  18.294150   0.226453  -0.086891  -0.925514 
S   21.259948  17.584918  18.277095   0.331426  -0.362142   0.373360 
S   21.324046  17.553838  15.072107   0.537840   0.220390   0.588364 
S   18.574255  15.986373  14.969401   0.268114  -0.107829   1.132635 
Mo  22.294827  15.965349  16.730338  -0.716187   0.580819   0.531355 
Mo  24.991293  17.603662  16.920039   1.154372  -0.454040  -0.621923 
S   24.047828  15.970943  18.508917  -0.073316  -0.163174  -0.927757 
S   26.873965  17.593096  18.517364  -0.220362   0.520419   0.201630 
S   26.939543  17.640198  15.358928  -0.446580  -0.084663   0.205126 
S   24.194626  15.994511  15.247659  -0.087320   0.267902  -0.313440 
Mo  27.876604  16.055375  16.958990  -0.902262  -0.710893  -0.881857 
Mo  30.636357  17.612812  16.930818  -0.486397   0.559181  -0.941057 
S   29.690034  16.087155  18.519225   0.280310  -0.407278   0.595707 
S   32.501458  17.579210  18.460117   0.172174   0.194962   0.485846 
S   32.449029  17.586843  15.296274   0.138125   0.221574  -0.125015 
S   29.649569  16.075734  15.293816   0.525858  -0.377849   0.534115 
Mo   0.090109  19.147528  16.855519  -0.390630   0.221653  -0.457959 
Mo   2.861133  20.779278  16.776998   0.062774   0.038055  -0.162622 
S    1.963828  19.201220  18.386155   0.006407  -0.365001   0.510045 
S    4.780758  20.800186  18.272756  -0.352293   0.085323   0.719455 
S    4.622286  20.839680  15.100246   0.360225  -0.106599   0.244682 
S    1.886624  19.179736  15.213007   0.182984  -0.315699   0.132372 
Mo   5.585130  19.205644  16.705304   1.079649   0.271313  -0.594265 
Mo   8.456768  20.838181  16.582322  -0.770539  -0.438881  -0.018484 
S    7.568519  19.229601  18.143183  -0.417167  -0.370859   0.463500 
S   10.288295  20.785446  18.173040  -0.001329   0.162020  -0.018165 
S   10.272896  20.780966  14.969404  -0.076671   0.544301  -0.041105 
S    7.393648  19.203406  15.026579   0.197778   0.075068   0.218538 
Mo  11.180823  19.184165  16.558278  -0.370309  -0.418931   0.364710 
Mo  13.897592  20.771873  16.659611  -0.454480   0.546525  -0.969535 
S   12.998129  19.138367  18.191285  -0.230061  -0.076182   0.178231 
S   15.663767  20.733984  18.234629   0.473721   0.096374   0.903243 
S   15.775343  20.809764  15.079522  -0.202198   0.211556   0.108819 
S   13.022540  19.176217  14.995766   0.293095  -0.016254   0.101957 
Mo  16.612111  19.160769  16.651868   1.327984  -0.197727   0.173406 
Mo  19.445094  20.768093  16.779519  -0.328015  -0.553383  -0.487717 
S   18.480795  19.064076  18.308308  -0.281112   0.827403  -0.317808 
S   21.320105  20.729473  18.360209  -0.128325   0.300320   0.037195 
S   21.335387  20.819410  15.253428   0.070902  -0.108901  -0.535970 
S   18.491369  19.199884  15.061716   0.364122   0.164989   0.786039 
Mo  22.260909  19.147289  16.752806  -0.179049   0.490747  -0.460640 
Mo  25.019264  20.787579  16.853073   0.158725   0.510043  -0.110690 
S   24.029190  19.208154  18.413796  -0.056015  -0.025725   0.434303 
S   26.822560  20.896849  18.524428   0.239134  -0.407887  -0.372600 
S   26.964371  20.829312  15.325113  -0.331294   0.205572   0.207166 
S   24.173252  19.161459  15.214944  -0.182167   0.163772   0.347316 
Mo  27.821407  19.237406  16.952764  -0.046437   0.006049   0.193981 
Mo  30.585309  20.790811  16.906149   0.461904   0.511481  -0.169427 
S   29.701810  19.203549  18.519202  -0.097839   0.104940   0.080211 
S   32.482165  20.828949  18.408184   0.112035  -0.321550   0.887261 
S   32.484344  20.801663  15.322069  -0.133796   0.091071  -0.061290 
S   29.621241  19.183860  15.295052   0.449945   0.227049   0.534218 
Mo   0.126965  22.388592  16.871780  -0.272254  -0.032381   0.212611 
Mo   2.905143  23.990369  16.848056  -0.171166  -0.615827   0.168938 
S    2.020595  22.274648  18.470409  -0.286259   0.834760  -0.444497 
S    4.791005  23.953309  18.414988  -0.047846   0.373747  -0.474393 
S    4.694385  24.020978  15.189172  -0.207978   0.189961  -0.302876 
S    1.934340  22.408447  15.238816  -0.118581   0.118643   0.011971 
Mo   5.638249  22.424568  16.703932   0.345664  -0.445268   0.379524 
Mo   8.399219  24.063337  16.689443  -0.023647   0.151366   0.275861 
S    7.560549  22.402484  18.260642  -0.232495  -0.134357  -0.142711 
S   10.279767  24.011517  18.247483  -0.150211   0.276483  -0.021889 
S   10.171975  24.156150  15.056610   0.437002  -0.642902  -0.160006 
S    7.450265  22.472482  15.098087   0.223720  -0.042258  -0.519045 
Mo  11.123522  22.460414  16.588584   0.665850  -0.790962   0.146429 
Mo  13.842960  24.044982  16.666401   1.462988  -0.086572  -0.030085 
S   12.988131  22.448382  18.249432  -0.501897  -0.636183  -0.311065 
S   15.733951  24.065644  18.324066  -0.455578  -0.511671  -0.212916 
S   15.736752  24.037902  15.125237   0.322687   0.070199   0.384065 
S   12.979538  22.404475  15.019026   0.132784   0.265548   0.433475 
Mo  16.636132  22.395905  16.752479   0.093084   0.300180  -0.958819 
Mo  19.496876  23.962760  16.797088  -0.746135   0.856343   0.236824 
S   18.471953  22.374078  18.296861   0.183698  -0.129980   0.954618 
S   21.298279  24.042848  18.420056   0.260134  -0.602098   0.059963 
S   21.319891  24.022989  15.252489   0.479516  -0.348724  -0.499726 
S   18.538757  22.389572  15.175664  -0.006376   0.086882   0.138302 
Mo  22.288860  22.408378  16.819163  -0.468505   0.133947   0.440364 
Mo  25.026471  23.998048  16.841445  -0.527558   0.405527   0.621698 
S   24.096029  22.427601  18.476693   0.037712  -0.275475  -0.598737 
S   26.920912  24.078399  18.472119  -0.695803   0.304553   0.125479 
S   26.881208  24.002182  15.353447   0.390440   0.353602  -0.917169 
S   24.112657  22.368850  15.181661   0.269097   0.278468   0.813268 
Mo  27.827786  22.486597  16.940105   0.872486  -1.113306  -0.104670 
Mo  30.663843  24.043257  16.923618  -0.372858  -0.234011   0.433539 
S   29.736397  22.453206  18.561759  -0.301926  -0.284755  -0.662557 
S   32.541746  24.025913  18.554470  -0.106275  -0.175192  -0.323940 
S   32.454069  24.007312  15.380744   0.923377   0.349414  -0.551608 
S   29.760965  22.463509  15.344954  -0.786901  -0.297224  -0.007054 
