288
Lattice="33.331098 0.035102 0.030866 0.027011 25.652161 -0.000664 0.027089 9e-05 30.405924 " PBC="1 1 1" Properties="species:S:1:pos:R:3:force:R:3" Energy=" -5.287549"
Mo   0.095904  -0.052164  16.829360   0.004680   0.153132  -0.612326 
Mo   2.872837   1.573321  16.794561  -0.317315  -0.545050  -0.579588 
S    1.960777  -0.014126  18.467373  -0.160186  -0.230561  -1.011221 
S    4.702676   1.502300  18.386834  -0.010932   0.682701   0.066167 
S    4.770302   1.572439  15.195068  -0.488473  -0.163823   0.433975 
S    1.949738  -0.096023  15.181986  -0.048873   0.431484   0.693179 
Mo   5.643622  -0.072172  16.813968  -0.470927   0.076744  -0.608038 
Mo   8.354389   1.613718  16.841849   0.538403  -1.161589  -0.034364 
S    7.443439  -0.040942  18.395424   0.688603  -0.267202   0.231319 
S   10.324775   1.514211  18.387824  -0.748538   0.536873   0.068888 
S   10.197792   1.608691  15.229478   0.011490  -0.309698  -0.325879 
S    7.489904  -0.039816  15.231272   0.069287   0.152768   0.173743 
Mo  11.159766  -0.035594  16.765507   0.727397  -0.047232  -0.375389 
Mo  14.001522   1.543990  16.757034   0.394894  -0.216063   0.326078 
S   13.027462  -0.084275  18.338247   0.486565  -0.219950  -0.476601 
S   15.880270   1.505070  18.322028  -0.337363  -0.352726   0.410575 
S   15.895649   1.541440  15.148500  -0.380344  -0.060640   0.243399 
S   13.096814   0.034427  15.142308  -0.834021  -0.641935  -0.041023 
Mo  16.803455  -0.110681  16.723021  -0.127711   0.821587  -0.507989 
Mo  19.501089   1.546887  16.761395   0.954289  -0.069586  -0.247319 
S   18.588060  -0.100620  18.292519   0.571912  -0.200212   0.532491 
S   21.376664   1.512676  18.362192  -0.395025   0.252458   0.343588 
S   21.463384   1.584373  15.251590  -0.661759  -0.372366  -0.351538 
S   18.734103  -0.081802  15.104402  -0.560937   0.225435   0.283983 
Mo  22.381771  -0.064379  16.816002  -0.835421   0.109330  -0.937636 
Mo  25.073635   1.581002  16.803015   0.663542  -0.268955   0.476772 
S   24.134403  -0.025022  18.420154   0.732126  -0.136414  -0.017428 
S   27.016061   1.545556  18.332192  -0.743455   0.688441   0.840877 
S   26.966756   1.621573  15.225827  -0.260541  -0.317172  -0.175923 
S   24.238668   0.016577  15.200342  -0.413599  -0.640639   0.037113 
Mo  27.960180   0.012535  16.802522  -1.078956  -0.597991  -0.466731 
Mo  30.668077   1.614754  16.768838  -0.790472  -0.307847   0.349028 
S   29.746276   0.003493  18.427717   0.366082   0.022945  -0.528210 
S   32.439394   1.575410  18.402770   0.640567   0.467578   0.170170 
S   32.547006   1.685233  15.244594  -0.119755  -0.872288  -0.283311 
S   29.783243  -0.022068  15.177653  -0.093206   0.362333  -0.024820 
Mo   0.089954   3.204632  16.785000  -0.281808   0.051878   0.345093 
Mo   2.890192   4.788817  16.773015  -0.383294   0.051312   0.005824 
S    1.948311   3.181213  18.371403  -0.093409   0.126641   0.018976 
S    4.677877   4.761427  18.454416   0.230057   0.509297  -0.752509 
S    4.721385   4.769842  15.167508   0.074185   0.346881   0.431109 
S    1.888931   3.188190  15.177529   0.715237  -0.027104   0.256735 
Mo   5.622612   3.205820  16.825343  -0.489505  -0.815366   0.049257 
Mo   8.405424   4.695213  16.878115  -0.532886   0.357319   0.167661 
S    7.359819   3.087825  18.488660   0.699834   0.699456  -0.123837 
S   10.269522   4.705306  18.433233   0.471315   0.206575  -0.473395 
S   10.196734   4.757587  15.211290   0.540842  -0.220016   0.253726 
S    7.408954   3.167161  15.217516   0.608426   0.115460   0.199300 
Mo  11.203303   3.134482  16.774147   0.161346   0.347379   1.039331 
Mo  13.988331   4.741520  16.771573   0.453980  -0.193915   0.001862 
S   13.143137   3.106625  18.412888  -0.642889   0.274366  -0.593938 
S   15.866967   4.757011  18.360898  -0.580749   0.136334   0.018281 
S   15.859137   4.708094  15.145955  -0.638234  -0.109512   0.068053 
S   13.035850   3.114919  15.193821   0.117819   0.360000  -0.147639 
Mo  16.747190   3.124115  16.799083   0.576914   0.620118  -0.734833 
Mo  19.534646   4.785253  16.792026  -0.154222  -0.629224   0.186435 
S   18.602063   3.137153  18.385788   0.057764   0.081394  -0.030140 
S   21.382657   4.797766  18.443848  -0.375301   0.086808  -0.362184 
S   21.403848   4.790140  15.229346  -0.357204  -0.050976  -0.406009 
S   18.578785   3.189796  15.189062   0.273251  -0.174415   0.152764 
Mo  22.264202   3.197574  16.838623   0.586560  -0.368512  -0.577063 
Mo  25.003369   4.793429  16.833352   1.063063  -0.617310   0.028524 
S   24.074973   3.162215  18.380367   0.653088  -0.020371   0.678834 
S   26.951408   4.805893  18.443241  -0.536422   0.093589  -0.477616 
S   26.852027   4.857360  15.241207   0.301501  -0.419380  -0.039171 
S   24.159497   3.126216  15.195214  -0.485365   0.599829   0.467908 
Mo  27.833662   3.227678  16.799650   0.066516   0.083374   0.456360 
Mo  30.594374   4.801563  16.763649   0.599119   0.186787  -0.500155 
S   29.711142   3.188385  18.397819  -0.078588   0.196968  -0.380726 
S   32.422262   4.811402  18.386138   0.321451   0.060775   0.092896 
S   32.487504   4.859940  15.165580   0.015432  -0.375332   0.666267 
S   29.587316   3.178558  15.189542   0.984513   0.260829  -0.102667 
Mo   0.126018   6.368547  16.795515  -0.875357   0.345695  -0.253355 
Mo   2.854037   8.043380  16.806318  -0.185065  -0.666593  -0.365290 
S    1.988679   6.400065  18.379818  -0.301686  -0.079451   0.074096 
S    4.694312   7.975847  18.355914   0.502976   0.667756   0.241176 
S    4.729435   8.009984  15.218662  -0.325690  -0.296702  -0.190296 
S    1.945423   6.430334  15.182612   0.265547  -0.113995   0.316419 
Mo   5.660596   6.377316  16.801021  -0.794435  -0.510732   0.256497 
Mo   8.451057   7.924280  16.778158  -0.783059   0.078798   0.041220 
S    7.467475   6.392867  18.432872   0.382887  -0.356815  -0.262999 
S   10.292699   7.984571  18.334938   0.369901  -0.010117   0.080039 
S   10.263354   7.866447  15.198037   0.364954   0.442946  -0.466621 
S    7.507684   6.276164  15.267601   0.067975   0.191436  -0.475799 
Mo  11.246742   6.330929  16.779098  -0.833865  -0.167800   0.222353 
Mo  13.966321   8.042918  16.747494  -0.165585  -0.631553  -0.644059 
S   13.068855   6.364002  18.337861   0.263710   0.195257   0.228061 
S   15.765393   7.991882  18.290843   0.487922  -0.067301   0.512066 
S   15.822274   7.994981  15.103614  -0.218267   0.047031   0.242236 
S   13.130337   6.367668  15.182461  -0.582024  -0.137768  -0.029427 
Mo  16.673628   6.361471  16.700328   1.093795  -0.040563   0.426438 
Mo  19.476459   7.983297  16.821459  -0.051732  -0.085855  -0.654226 
S   18.523627   6.350578  18.332367  -0.270810   0.126242   0.293608 
S   21.280314   7.902359  18.433109   0.627329   0.620599  -0.369416 
S   21.293804   8.052506  15.219560   0.686011  -0.474251   0.261247 
S   18.611030   6.330410  15.171992  -0.218376   0.559368   0.209970 
Mo  22.299801   6.377111  16.786009  -0.642279   0.447812   0.640448 
Mo  25.053390   7.933842  16.869062  -0.269393   0.614468  -1.063502 
S   24.132382   6.376277  18.426969  -0.347512  -0.234249   0.314937 
S   26.917286   7.982836  18.414099   0.295675   0.204874   0.068771 
S   26.866589   7.966612  15.235024   0.170402  -0.159725  -0.415185 
S   24.117136   6.330172  15.207441   0.209114   0.643340   0.053634 
Mo  27.855244   6.421487  16.816131   0.010765  -0.234375  -0.465773 
Mo  30.684946   8.055464  16.801874  -0.803942  -0.491716  -0.408436 
S   29.733327   6.433033  18.319159  -0.089726  -0.154788   0.728489 
S   32.448530   7.971943  18.417986   0.640453   0.135591   0.492743 
S   32.495840   8.046856  15.238986   0.562422  -0.071662   0.098303 
S   29.756870   6.493089  15.165023  -0.518468  -0.390411   0.486691 
Mo   0.040060   9.603172  16.870750   0.541728  -0.128999  -0.970802 
Mo   2.904869  11.192452  16.754374  -0.873621   0.177810  -1.036192 
S    1.921601   9.673580  18.401401   0.201266  -0.247004   0.069000 
S    4.724586  11.202048  18.324705   0.329840   0.393191   0.086653 
S    4.697556  11.141859  15.074075   0.110731   0.257206   0.398776 
S    1.888196   9.573442  15.195519  -0.074918   0.336318   0.400739 
Mo   5.641434   9.626138  16.742101   0.437591  -0.953894   0.008767 
Mo   8.482384  11.127489  16.653275  -1.260770   0.325425  -0.115849 
S    7.505809   9.565039  18.314546   0.251310   0.473674  -0.133478 
S   10.304837  11.248862  18.227362  -0.046044  -0.367373   0.392509 
S   10.281285  11.161260  15.045322   0.273780  -0.084106   0.268371 
S    7.481914   9.454387  15.090198   0.248847   0.338944   0.600968 
Mo  11.224587   9.572667  16.684256  -0.128479   0.317905   0.231403 
Mo  13.962253  11.240579  16.693202  -0.329414  -0.189510   0.039309 
S   13.045155   9.646195  18.343143  -0.123151   0.086113  -0.457921 
S   15.778264  11.166269  18.327616   0.203981   0.501475  -0.406166 
S   15.815442  11.126487  15.114964   0.268078   0.669851   0.200341 
S   13.060249   9.605875  15.074526  -0.084180   0.013521   0.418498 
Mo  16.752927   9.574584  16.737342  -0.380852   0.034150  -0.199887 
Mo  19.463140  11.238367  16.797961   0.584188  -0.978937   0.437069 
S   18.547150   9.595950  18.385018   0.020962   0.138094   0.097545 
S   21.301671  11.199204  18.428064   0.263222   0.049358  -0.150352 
S   21.354423  11.191266  15.273496   0.225925   0.012899  -0.324633 
S   18.610872   9.539490  15.144638  -0.016062   0.591802   0.529401 
Mo  22.289351   9.591116  16.845430  -0.856887  -0.479306  -0.036218 
Mo  25.052024  11.135043  16.791220   0.714919   0.428145  -0.423146 
S   24.102176   9.572911  18.415332   0.418458   0.011961   0.369913 
S   26.950183  11.160360  18.311298  -0.093871   0.104926   0.411392 
S   26.957500  11.154079  15.225355  -0.596666   0.273100  -0.670602 
S   24.161285   9.568222  15.228233  -0.543554  -0.468655   0.061543 
Mo  27.858823   9.552886  16.740452   0.529196   0.181317   1.047523 
Mo  30.588387  11.255619  16.789659   0.020205   0.225928   0.525228 
S   29.714311   9.599822  18.388269  -0.288127   0.407315  -0.110815 
S   32.441241  11.290932  18.433009   0.149445   0.257633  -0.484639 
S   32.446387  11.181238  15.245448   0.355517   0.102569  -0.211295 
S   29.753274   9.620284  15.168717  -0.338196   0.035532   0.200971 
Mo   0.142905  12.793571  16.691057  -0.843616  -0.242963   0.284431 
Mo   2.935654  14.397540  16.673091  -0.072906   0.008151   0.273282 
S    2.001099  12.843491  18.275833  -0.150243  -0.149883   0.188989 
S    4.822728  14.401680  18.299049  -0.552671  -0.236322  -0.186954 
S    4.777661  14.459974  15.051162  -0.394099  -0.562680   0.294586 
S    1.966897  12.785512  15.056736   0.214190  -0.049866   0.666292 
Mo   5.641802  12.790600  16.655260  -0.075997  -0.219092  -0.044207 
Mo   8.371988  14.382256  16.606123   1.137501   0.571476  -0.038859 
S    7.519984  12.797505  18.185416  -0.050840  -0.418958   0.511360 
S   10.217476  14.462088  18.237659   0.132336  -0.221859  -0.276570 
S   10.263630  14.372567  14.999396  -0.343523   0.375091   0.346025 
S    7.478668  12.736597  15.064481   0.129550  -0.311845  -0.218115 
Mo  11.162349  12.853361  16.653527   0.723487  -0.475302  -0.476921 
Mo  14.003153  14.456233  16.620235  -0.186001  -0.149237   0.297490 
S   13.033422  12.936704  18.241533  -0.029591  -0.491803  -0.076369 
S   15.823145  14.464368  18.212804   0.140087   0.170169   0.536114 
S   15.883934  14.326050  15.088532  -0.026759   0.658234  -0.747850 
S   13.049675  12.857748  15.049837  -0.086888  -0.448074   0.298572 
Mo  16.737379  12.830641  16.717380   0.249587  -1.538189  -0.101821 
Mo  19.535330  14.441019  16.737292   0.787077  -0.845104   0.177373 
S   18.501794  12.876684  18.374339   0.455757  -0.078645  -0.266239 
S   21.406412  14.390954  18.377664  -0.514466   0.245339   0.113022 
S   21.437992  14.381726  15.213897  -0.162097  -0.174778  -0.285538 
S   18.683535  12.767679  15.175510  -0.812379   0.605638  -0.305603 
Mo  22.330329  12.786191  16.837431  -0.380816  -0.213180  -0.715117 
Mo  25.080090  14.352156  16.806709   0.364894   0.297449  -0.294464 
S   24.187800  12.715858  18.351875  -0.153375   0.254476   0.906111 
S   26.944776  14.362346  18.386866  -0.219764   0.716627   0.094401 
S   26.904434  14.407859  15.168981  -0.022921   0.281724   0.155595 
S   24.171780  12.778956  15.163576  -0.247299  -0.282730   0.477762 
Mo  27.819884  12.850188  16.753815   0.325147  -0.949013  -0.058829 
Mo  30.620900  14.468860  16.747136  -0.332904  -0.505402  -0.142972 
S   29.596075  12.912348  18.363153   0.780035  -0.387920  -0.074533 
S   32.475149  14.371748  18.288511   0.369081   0.730341   0.349912 
S   32.488161  14.425371  15.150916   0.106244   0.125842   0.056895 
S   29.662138  12.845146  15.159888   0.262520   0.023984   0.183883 
Mo   0.093419  16.015501  16.721996   0.027180  -0.260646   0.318535 
Mo   2.852332  17.587521  16.742931   0.241579   0.689151   0.025056 
S    2.021436  15.978671  18.333210  -0.649948  -0.321700  -0.283653 
S    4.739562  17.635454  18.298999   0.001603  -0.458527   0.015172 
S    4.655235  17.584864  15.101697   0.377436   0.273628   0.096907 
S    1.945615  15.996317  15.158017  -0.080838   0.129908  -0.472448 
Mo   5.642474  16.002214  16.707294   0.325523   0.567037   0.020145 
Mo   8.435897  17.621934  16.614067   0.401328  -0.460418   0.115167 
S    7.592996  16.040902  18.236803  -0.664627  -0.228131  -0.056458 
S   10.325332  17.597004  18.177102  -0.198278   0.451150   0.017815 
S   10.287308  17.616725  15.012016  -0.255682  -0.291356  -0.335460 
S    7.394802  15.972878  15.051032   0.615486   0.452185  -0.107169 
Mo  11.211444  16.000605  16.608870  -0.322573  -0.049565  -0.296076 
Mo  14.008880  17.615466  16.579941   0.406030  -0.323888  -0.033660 
S   13.046486  16.060773  18.208091   0.244112  -0.018695   0.007023 
S   15.887952  17.633169  18.166333  -0.209880  -0.214706  -0.077533 
S   15.905242  17.562079  14.977348  -0.120263   0.284749   0.257641 
S   13.062257  15.998720  15.038495   0.053810   0.140096  -0.571196 
Mo  16.861297  15.988857  16.605398  -1.131676   0.571500   0.015271 
Mo  19.622890  17.652469  16.649688  -0.060413  -0.987146   0.621347 
S   18.637112  16.073301  18.233419  -0.010798   0.163140   0.508558 
S   21.419598  17.642511  18.341300   0.041985  -0.297771  -0.397915 
S   21.502249  17.658580  15.090066   0.179782  -0.771302   0.310700 
S   18.728207  16.016372  15.050896   0.110903  -0.094451   0.016036 
Mo  22.335532  15.975885  16.774719   0.029438   0.652097   0.267802 
Mo  25.079583  17.583976  16.770288   0.595044  -0.019169   0.445772 
S   24.175004  15.924765  18.438398  -0.163563   0.538549  -0.743514 
S   26.970614  17.640891  18.351697  -0.241832  -0.047537   0.063592 
S   26.957703  17.646238  15.227043  -0.145130  -0.141087  -0.480539 
S   24.172839  15.925113  15.199028   0.033882   0.379078  -0.011019 
Mo  27.861446  16.027479  16.783310  -0.048605  -0.314706  -0.142645 
Mo  30.665784  17.629370  16.734243  -0.010068   0.272793   0.703153 
S   29.712416  16.098631  18.357585   0.166876  -0.517010  -0.032228 
S   32.473694  17.624751  18.393093   0.378733  -0.040336  -0.555025 
S   32.483755  17.675119  15.125504   0.399776  -0.329480   0.195343 
S   29.672519  16.049033  15.131766   0.266723   0.040701   0.221771 
Mo   0.088703  19.194821  16.733739  -0.614489   0.239261   0.533166 
Mo   2.852330  20.773638  16.861086   0.651282   0.042364  -0.877216 
S    1.902488  19.155464  18.398419   0.107049  -0.077044  -0.214028 
S    4.796055  20.758568  18.371061  -0.137799   0.005188  -0.276506 
S    4.735782  20.833911  15.219025  -0.462175   0.146480  -0.147001 
S    1.934776  19.243181  15.174757   0.157031  -0.186374   0.161767 
Mo   5.674843  19.174187  16.674479   0.059061   0.466844   0.794402 
Mo   8.450217  20.848831  16.701620   0.189744  -0.243175   0.081703 
S    7.559748  19.184604  18.269369  -0.201518  -0.037037  -0.146870 
S   10.330815  20.764089  18.241874   0.172515   0.168981  -0.217170 
S   10.297250  20.858869  15.067596  -0.439244   0.339856  -0.434496 
S    7.555075  19.285800  15.135162  -0.613703  -0.202052  -1.009921 
Mo  11.222806  19.216647  16.543029   0.096531  -0.152950   1.458123 
Mo  14.014752  20.817044  16.547146   0.104382   0.023763   0.880632 
S   13.092993  19.185835  18.142066  -0.182170   0.369991   0.079601 
S   15.842280  20.851815  18.223484   0.137015  -0.501100  -0.633949 
S   15.913874  20.859525  15.011308  -0.116275  -0.051283  -0.324076 
S   13.063678  19.197695  14.998574   0.308556   0.021802  -0.642640 
Mo  16.787888  19.227888  16.574142   0.135289  -0.248641   1.089024 
Mo  19.547796  20.780987  16.686893   0.824683   0.241620   0.063448 
S   18.651967  19.181520  18.255589  -0.804260   0.130009  -0.082623 
S   21.360069  20.718171  18.274691   0.631262   0.478645   0.370041 
S   21.453424  20.772781  15.139009   0.126717   0.029056  -0.046674 
S   18.686089  19.188349  15.109485  -0.136446   0.314423  -1.223758 
Mo  22.417779  19.187412  16.732057  -0.499593   0.059588   0.050818 
Mo  25.175157  20.825049  16.776008  -0.223730  -0.543994  -0.140191 
S   24.224959  19.180381  18.396256  -0.071761   0.296845  -0.504629 
S   27.012880  20.821093  18.394876  -0.175815  -0.058305  -0.025480 
S   27.055637  20.848282  15.176178  -0.396563   0.126465   0.276742 
S   24.256809  19.219022  15.132215   0.152167  -0.168325   0.440120 
Mo  27.953519  19.239157  16.767186  -0.787431  -0.139201   1.219805 
Mo  30.595525  20.880560  16.818027   1.247754  -0.363680  -0.370423 
S   29.826430  19.216753  18.426778  -0.618458  -0.067424  -0.507468 
S   32.471646  20.825564  18.408382   0.165081   0.065054  -0.361731 
S   32.479091  20.922606  15.209222  -0.185913  -0.746092   0.122625 
S   29.755240  19.256666  15.243826   0.183968   0.110070  -1.134541 
Mo   0.087126  22.408698  16.775019   0.164978  -0.218088   0.114757 
Mo   2.899827  23.982875  16.802730  -0.188417   0.278366   0.001673 
S    1.927670  22.428200  18.356702   0.021680  -0.309165   0.799197 
S    4.744664  23.987482  18.425579  -0.071448  -0.130247  -0.225731 
S    4.731057  23.964173  15.204397  -0.041986   0.520123  -0.127318 
S    1.959554  22.324059  15.205438   0.089910   0.522577   0.252599 
Mo   5.694058  22.445761  16.786364  -0.134306  -0.988448   0.167758 
Mo   8.474512  23.972738  16.812640   0.031895   1.445250  -0.297354 
S    7.543349  22.375833  18.343012  -0.001393   0.024311   0.581568 
S   10.358858  23.967361  18.383404  -0.164346   0.033362  -0.339184 
S   10.266479  24.109877  15.123928  -0.030470  -0.466049   0.145107 
S    7.536587  22.509870  15.148051  -0.319578  -0.444469   0.014877 
Mo  11.218186  22.447707  16.665967   0.728416  -0.494235   0.155306 
Mo  13.984030  23.950740  16.644036   0.752058   1.335064   0.129646 
S   13.133632  22.356209  18.230485  -0.548423  -0.112644  -0.172655 
S   15.818695  23.908980  18.218760   0.341631   0.413068   0.553366 
S   15.970292  24.051622  15.096997  -0.855176  -0.467562  -0.609448 
S   13.087817  22.443905  15.010618  -0.552339  -0.136719  -0.102677 
Mo  16.851134  22.409562  16.629693  -0.083377  -0.243886   0.528752 
Mo  19.640187  23.978296  16.716436  -0.291231  -0.118846   0.053772 
S   18.692085  22.391224  18.310961  -0.440757   0.002797  -0.350052 
S   21.451420  23.947934  18.343304   0.124457  -0.043335   0.064693 
S   21.496874  23.982851  15.164543   0.416107   0.064108   0.127757 
S   18.735750  22.395421  15.074007  -0.054605   0.291567  -0.072104 
Mo  22.427876  22.344738  16.749942  -1.004818   0.422778   0.056018 
Mo  25.100482  23.990536  16.802633   0.501147   0.795414  -0.007519 
S   24.212380  22.361295  18.404420  -0.007756   0.085823  -0.196856 
S   26.970252  24.079085  18.426397  -0.121216   0.075308  -0.378444 
S   26.995462  24.074386  15.234066  -0.292209  -0.029908  -0.013326 
S   24.223057  22.389596  15.124020   0.353081   0.166203   0.518591 
Mo  27.870991  22.467119  16.831818   0.453741  -0.241625  -0.595802 
Mo  30.653390  24.016165  16.775292  -0.003813   0.614398  -0.356572 
S   29.720732  22.475694  18.370810  -0.212870  -0.122629   0.753542 
S   32.416806  23.980694  18.364292   0.809987   0.500494   0.711089 
S   32.557164  24.041764  15.202914  -0.241602   0.191352   0.190952 
S   29.681687  22.461287  15.166697   0.054663  -0.153858   0.339285 
