288
Lattice="33.330656 0.03493 0.030861 0.026878 25.655614 -0.000664 0.027085 9e-05 30.548578 " PBC="1 1 1" Properties="species:S:1:pos:R:3:force:R:3" Energy=" -5.286291"
Mo   0.048026  -0.056639  16.851264   0.322098   0.110964  -0.062062 
Mo   2.864806   1.554603  16.745349   0.176771  -0.304964   0.154261 
S    2.009796  -0.001374  18.440538  -0.496215  -0.340713  -0.923645 
S    4.779210   1.631273  18.284709  -0.373268  -0.599264   0.263550 
S    4.731017   1.498347  15.133524  -0.223602   0.274084   0.223301 
S    1.866164  -0.069464  15.165036   0.175463   0.007377   0.643885 
Mo   5.610438  -0.117692  16.766952   0.715795   1.414048   0.131104 
Mo   8.435917   1.568713  16.709427  -0.609705   0.654070   0.159971 
S    7.526183  -0.054886  18.305663  -0.273202  -0.002044   0.083990 
S   10.246209   1.655406  18.306108   0.224596  -0.629363  -0.020268 
S   10.251557   1.530588  15.094558  -0.170036   0.445492  -0.167278 
S    7.496959   0.016982  15.174765  -0.533066  -0.952316  -0.554311 
Mo  11.112144  -0.036416  16.702634   0.667435   0.266396   0.204716 
Mo  13.957192   1.598281  16.697266  -1.013511  -0.854384  -0.153829 
S   13.003670   0.021895  18.278363  -0.260760  -0.239969   0.188663 
S   15.734088   1.486382  18.321321   0.570799   0.643611   0.122297 
S   15.777170   1.556687  15.165377   0.519302  -0.309299  -0.607855 
S   12.954619  -0.013481  15.085430   0.448685  -0.067587   0.486326 
Mo  16.746368  -0.058417  16.741108  -0.606892  -0.010488   0.274940 
Mo  19.464363   1.537445  16.750560   0.108774   0.314194  -0.732136 
S   18.571321   0.047534  18.400431  -0.532244  -0.760772  -0.171614 
S   21.255023   1.525475  18.397535   0.274293   0.628645   0.011693 
S   21.331121   1.507598  15.147629   0.238546   0.195091   0.539689 
S   18.569747  -0.072139  15.135480  -0.039483   0.008908   0.208042 
Mo  22.217036  -0.034858  16.847738   0.205539   0.167694  -0.184961 
Mo  25.059764   1.551799  16.890083  -0.815520   0.370769   0.082229 
S   24.075409   0.050995  18.505081  -0.304108  -0.486907   0.019840 
S   26.867585   1.557370  18.459548   0.532270   0.066900   0.347076 
S   26.920634   1.542088  15.347019  -0.342241  -0.237521  -1.047548 
S   24.067444  -0.055517  15.294423   0.607660   0.012613   0.245468 
Mo  27.816025  -0.075920  16.894737   0.101865   0.122866   0.135317 
Mo  30.574284   1.537619  16.823835   0.313328  -0.668461   0.626658 
S   29.694691  -0.048253  18.477902  -0.195164   0.198946  -0.091677 
S   32.462385   1.626926  18.461842  -0.356500  -0.829738   0.029162 
S   32.408893   1.493416  15.245493   0.460139   0.637965   0.331625 
S   29.635063  -0.145126  15.229179  -0.112929   0.652700   0.518720 
Mo   0.030213   3.106236  16.843825   0.724512   0.597808  -1.021601 
Mo   2.823635   4.726045  16.731547   1.382494   0.429452   0.323469 
S    1.945353   3.138379  18.368297  -0.126875  -0.124181  -0.127392 
S    4.757533   4.750638  18.358130  -0.669031  -0.242433  -0.583136 
S    4.649298   4.823453  15.045325   0.117235  -0.703404   0.927929 
S    1.960697   3.126764  15.157120  -1.161889  -0.121600   0.116037 
Mo   5.659283   3.188060  16.673572  -0.525433   0.102060  -0.443216 
Mo   8.400391   4.765172  16.703952   0.262948  -0.215078  -0.271958 
S    7.457595   3.170527  18.285823   0.342733  -0.092886   0.121918 
S   10.200327   4.727765  18.327059   0.574305   0.376998  -0.308711 
S   10.263361   4.825533  15.082216  -0.204185  -0.233146   0.327738 
S    7.515342   3.199991  15.083033  -0.132417  -0.339218   0.099387 
Mo  11.147406   3.185304  16.659593   0.650418   0.095565   0.518571 
Mo  13.992565   4.767255  16.658681  -0.346241  -0.311455   0.305404 
S   13.070267   3.213004  18.269519  -0.622736  -0.050568  -0.083394 
S   15.842685   4.739930  18.321469  -0.617661   0.074477   0.072797 
S   15.859511   4.693829  15.109976  -0.124468   0.706710   0.147018 
S   12.993662   3.131630  15.078118   0.373703   0.501817   0.013021 
Mo  16.730053   3.141382  16.737054  -0.759931  -0.639365   0.174388 
Mo  19.485585   4.717883  16.675055  -0.542735   0.121946   0.669607 
S   18.524019   3.134763  18.298985   0.554411   0.295015   0.430367 
S   21.298674   4.716773  18.307613  -0.118138  -0.325437   0.486597 
S   21.413292   4.696333  15.148699  -0.165142  -0.027192   0.357249 
S   18.473360   3.088881  15.093650   0.967488   0.278917   0.189938 
Mo  22.291568   3.079064  16.791134  -0.092976   0.706952   0.242191 
Mo  25.066298   4.741428  16.909102   0.060318   0.007559  -0.554716 
S   24.129197   3.214676  18.547567  -0.388053  -0.749942  -1.111427 
S   26.913284   4.755130  18.494187   0.092361   0.206775  -0.080280 
S   26.920889   4.833019  15.267681  -0.161322  -0.243879   0.446755 
S   24.198096   3.117625  15.248312  -0.165586   0.187679   0.386896 
Mo  27.784753   3.171500  16.839162   0.935809  -0.118574   1.050303 
Mo  30.557389   4.748580  16.902344   0.715003   0.481187  -0.237683 
S   29.678222   3.110791  18.445977  -0.427139   0.151528   0.079067 
S   32.455404   4.795746  18.499730   0.239686   0.004918  -0.630861 
S   32.442812   4.782166  15.319817  -0.031111   0.051948  -0.064665 
S   29.642664   3.087019  15.269151   0.031371   0.925196  -0.153956 
Mo   0.132232   6.363575  16.829013  -0.931907  -0.318982  -0.774848 
Mo   2.820755   8.000445  16.775436   0.596567  -0.491801  -0.086210 
S    2.013645   6.330340  18.344402  -0.345152   0.150584   0.471839 
S    4.726112   7.950651  18.305890  -0.571956  -0.381649   0.814730 
S    4.702047   7.939377  15.185168  -0.555068   0.224098  -0.441574 
S    1.981614   6.384804  15.182324  -0.887773  -0.119127  -0.152393 
Mo   5.597420   6.318845  16.739163   0.733543   0.578222  -0.110745 
Mo   8.426328   7.908184  16.735152  -0.782039   0.813129  -0.840111 
S    7.528256   6.333126  18.309444  -0.642812  -0.042672   0.297390 
S   10.279643   7.990860  18.281437  -0.225554  -0.235804   0.951090 
S   10.280154   7.956233  15.138549  -0.211190   0.252725  -0.028191 
S    7.431245   6.317787  15.125668   0.265482   0.508169  -0.043160 
Mo  11.176383   6.380313  16.743078   0.262277  -0.854864  -0.757504 
Mo  13.936264   7.903247  16.746262   0.331840   1.130739  -0.958351 
S   13.014385   6.320915  18.275211   0.265279  -0.263866   0.774510 
S   15.750826   7.944052  18.346969   0.192621  -0.443247   0.479608 
S   15.798367   7.954570  15.162344  -0.007501  -0.228822  -0.053119 
S   13.076129   6.391180  15.113973  -0.670886  -0.437210  -0.203600 
Mo  16.724975   6.361457  16.775777  -0.350697  -0.556092  -1.177738 
Mo  19.469965   7.894248  16.708808   0.861135   0.675985   0.015184 
S   18.497015   6.398056  18.359726   0.930289  -0.924282  -0.346455 
S   21.311162   7.964423  18.376662  -0.106607  -0.598384  -0.186331 
S   21.427600   7.904752  15.164723  -0.432211   0.434820   0.564653 
S   18.530348   6.320756  15.118080   0.226311   0.152133  -0.018188 
Mo  22.273323   6.309355  16.819172   0.124376   0.378997  -0.108699 
Mo  25.053513   7.951926  16.876306  -0.208279  -0.257419   0.326523 
S   24.101010   6.296959  18.496758  -0.072830   0.669744  -0.461498 
S   26.896645   8.026049  18.486620  -0.082756  -0.088237   0.043606 
S   26.936895   7.975973  15.285454  -0.353024  -0.138580   0.023941 
S   24.129899   6.280683  15.289818   0.380806   0.510639  -0.044839 
Mo  27.834348   6.405496  16.926414  -0.358613  -0.346455  -0.326638 
Mo  30.621905   7.981156  16.856457   0.476022   0.425833   0.253008 
S   29.684190   6.437337  18.481107   0.243309  -0.569330   0.215442 
S   32.541782   7.985104  18.398712  -0.382420   0.138717   0.346300 
S   32.466787   8.069520  15.244765   0.160412  -0.874840   0.173259 
S   29.664340   6.390209  15.330503   0.107336  -0.396640  -0.458201 
Mo   0.079983   9.591410  16.791837  -0.055993   0.136530   0.394697 
Mo   2.829525  11.159291  16.822822  -0.029093  -0.436885  -0.102873 
S    1.906642   9.569457  18.425207   0.097377  -0.119625  -0.195525 
S    4.709749  11.110496  18.422752  -0.505022   0.022466   0.075458 
S    4.659235  11.190627  15.227332  -0.178800  -0.185665  -0.447809 
S    1.867872   9.570081  15.153379   0.438183   0.361266   0.352609 
Mo   5.537860   9.548611  16.767778   1.856828   0.405036   0.003928 
Mo   8.383439  11.157895  16.753242  -0.002130  -0.512634   0.787819 
S    7.483100   9.482274  18.344130  -0.252240   0.259821  -0.358028 
S   10.251245  11.189868  18.371594  -0.210402  -0.541999  -0.173724 
S   10.224331  11.126816  15.164484  -0.004852   0.522169  -0.264016 
S    7.398787   9.592720  15.176382   0.319281  -0.501419   0.032659 
Mo  11.177448   9.580895  16.747548   0.373013  -0.086589  -0.060048 
Mo  14.000595  11.097653  16.735731  -0.479637   0.670951   0.262671 
S   13.089564   9.486401  18.330245  -0.662934   0.452862   0.096066 
S   15.846054  11.072945  18.397266  -0.506316   0.223698  -0.112581 
S   15.835598  11.160986  15.144940   0.059557  -0.366045   0.509120 
S   13.004804   9.588642  15.112701   0.382018  -0.484879   0.444781 
Mo  16.720692   9.494842  16.791646   0.281509   0.890317  -0.397572 
Mo  19.491358  11.108949  16.835755  -0.165485   0.636124  -0.170855 
S   18.646440   9.454553  18.380337  -0.854832  -0.068700  -0.142625 
S   21.307174  11.150753  18.449217   0.360791  -0.254020   0.307369 
S   21.354834  11.255714  15.310768   0.353782  -0.602593  -0.394120 
S   18.512555   9.577992  15.164362   0.731905  -0.269644   0.135118 
Mo  22.279444   9.567623  16.853739  -0.528335  -0.070131  -0.822052 
Mo  25.072307  11.187739  16.823596   0.668911  -1.044148   1.365689 
S   24.066224   9.604714  18.451273   0.638634  -0.312173  -0.168324 
S   26.930442  11.219322  18.446352   0.050046  -0.538414  -0.019055 
S   26.979277  11.230514  15.269004  -0.191510  -0.246163   0.199370 
S   24.129047   9.528495  15.278151   0.156587   0.277439  -0.203602 
Mo  27.853442   9.559877  16.854418   0.158983   1.044693   0.564858 
Mo  30.645480  11.181756  16.876799   0.315625  -0.032669   0.381483 
S   29.720401   9.564549  18.498155  -0.198559   0.178688  -0.506127 
S   32.518327  11.174482  18.495872  -0.359152   0.061580  -0.310686 
S   32.474213  11.273805  15.265604   0.053023  -0.183737   0.220266 
S   29.714112   9.619680  15.277817  -0.104788  -0.385810  -0.066914 
Mo   0.076416  12.788875  16.883885   0.621912  -0.137995  -0.030809 
Mo   2.906808  14.366885  16.797904  -0.665741  -0.621634   1.416340 
S    1.975028  12.721058  18.473789  -0.146342   0.587998  -0.636444 
S    4.746900  14.363430  18.496147  -0.630592  -0.274444  -0.611601 
S    4.777117  14.370245  15.249227  -0.467661   0.105067  -0.195815 
S    1.913285  12.751512  15.223281  -0.004524   0.355705   0.407272 
Mo   5.567647  12.729399  16.834609   0.935549   0.512760   0.150150 
Mo   8.371380  14.357864  16.913905  -0.547101   0.380420  -0.838235 
S    7.393326  12.675748  18.394790   0.511017   0.070262   0.416750 
S   10.193835  14.325853  18.470965   0.764454   0.038804  -0.379127 
S   10.127489  14.391968  15.214471   0.538609  -0.176793   0.541184 
S    7.472827  12.824523  15.266316  -0.367464  -0.189457  -0.256725 
Mo  11.132567  12.749449  16.764821   0.098880   0.366944   0.621255 
Mo  13.955023  14.345004  16.793401  -0.581546  -0.408821  -0.144796 
S   13.059792  12.670832  18.362060  -0.387741   0.238024  -0.411945 
S   15.743918  14.349167  18.401968   0.195307  -0.387374   0.375944 
S   15.809726  14.327556  15.232678   0.143140   0.386398   0.054298 
S   12.957585  12.771030  15.195122   0.617279  -0.191132  -0.084483 
Mo  16.725548  12.711189  16.828738  -0.129682   0.240228   0.162880 
Mo  19.482044  14.354254  16.923004  -0.349004  -0.242392   0.192172 
S   18.559688  12.669878  18.472494  -0.050926   0.280369  -0.173372 
S   21.374129  14.326308  18.509132  -0.205400   0.228261   0.248473 
S   21.310645  14.343552  15.383750   0.754367   0.405394  -0.229515 
S   18.566186  12.753977  15.273508   0.365951   0.205960   0.047314 
Mo  22.347282  12.750744  16.934886  -0.415312   0.242842   0.379047 
Mo  25.111354  14.339243  16.877328  -0.413702   0.447536   0.121178 
S   24.283211  12.721651  18.581347  -0.681595   0.202483  -1.140976 
S   26.930247  14.472447  18.464467   0.429011  -0.660283   0.249387 
S   26.987528  14.420921  15.270884  -0.149804  -0.201343   0.486374 
S   24.162352  12.735307  15.331927  -0.273137   0.559659  -0.985842 
Mo  27.905818  12.802312  16.913080  -0.148930   0.723461  -0.663969 
Mo  30.709767  14.424385  16.907271  -1.110012  -0.379717  -0.488445 
S   29.770878  12.782577  18.467844  -0.207609   0.229324   0.374076 
S   32.476493  14.425441  18.503872   0.370533  -0.232879   0.494020 
S   32.557198  14.398400  15.289355  -0.481809   0.251096   0.024653 
S   29.759926  12.795715  15.293444  -0.130859   0.377452   0.265563 
Mo   0.043435  15.975689  16.885041   0.439157   0.051636  -0.133077 
Mo   2.875099  17.569076  16.904118  -0.262576  -0.332765  -0.348238 
S    1.895830  15.940939  18.422341   0.497576  -0.212283   0.345944 
S    4.697194  17.497932  18.504161  -0.003276   0.366604   0.246077 
S    4.697505  17.498675  15.300576  -0.098769   0.537254  -0.247122 
S    1.940494  15.966960  15.295337  -0.221570   0.239527  -0.190140 
Mo   5.624277  15.967043  16.883335   0.249936  -0.655561  -0.063157 
Mo   8.391919  17.565727  16.914512   0.135475  -0.127243  -0.859155 
S    7.443285  15.974436  18.472289   0.329791  -0.162326   0.559301 
S   10.303905  17.503604  18.468738  -0.298659   0.778089  -0.104692 
S   10.158254  17.483454  15.247240   0.506847   0.780767   0.256189 
S    7.470289  16.017716  15.277793   0.005599  -0.441752   0.432197 
Mo  11.144749  15.960933  16.841725   0.077716  -1.100672   0.096160 
Mo  13.960063  17.572540  16.789337  -0.646216  -0.080073   0.702960 
S   13.057430  15.895558  18.399674  -0.263873   0.658496  -0.081283 
S   15.736565  17.621127  18.459688   0.185058   0.034466  -0.280842 
S   15.826856  17.577868  15.251868  -0.174184  -0.010757  -0.215659 
S   12.978229  15.978058  15.246483   0.228948  -0.259055  -0.302860 
Mo  16.659002  15.969339  16.886570   1.125886  -0.020324  -0.566155 
Mo  19.449014  17.550495  16.898269   0.561679   0.486091   0.455652 
S   18.501841  15.949806  18.513496   0.036869  -0.009094  -0.212686 
S   21.280471  17.624522  18.533106   0.338898  -0.108725  -0.415381 
S   21.365955  17.566107  15.352475  -0.112817  -0.142651  -0.111304 
S   18.600371  16.017007  15.322743  -0.621733  -0.931792  -0.199225 
Mo  22.287309  15.970026  16.972325  -0.480925  -0.122867  -0.615535 
Mo  25.066213  17.534101  16.856476  -0.302040   0.864058   0.636085 
S   24.169574  15.938187  18.472816   0.081116   0.022348   0.273596 
S   26.917612  17.632559  18.495771   0.040942   0.221930  -0.239619 
S   26.953427  17.604304  15.364619  -0.191214   0.487059  -1.057677 
S   24.078204  15.909741  15.284561   0.305639   0.249234   0.314753 
Mo  27.874471  16.050836  16.902312   0.017407  -0.702465  -0.025603 
Mo  30.628668  17.657121  16.851366   0.308988  -0.356755   0.779132 
S   29.699374  16.051649  18.476501   0.440113   0.020232   0.069379 
S   32.412818  17.637270  18.544613   0.365067  -0.225388  -0.562222 
S   32.520871  17.611866  15.302962  -0.264396   0.053716  -0.131573 
S   29.725761  16.011740  15.326157   0.080042  -0.077076  -0.360540 
Mo   0.110888  19.124723  16.892626  -0.455408   0.788074   0.364433 
Mo   2.835261  20.803064  16.883431   0.253009  -0.357268  -0.190011 
S    1.968041  19.151998  18.482755  -0.284852   0.363427   0.226231 
S    4.699704  20.811011  18.441120   0.242677   0.071657   0.207992 
S    4.710923  20.716573  15.280098  -0.199335   0.265638   0.249213 
S    1.946427  19.172674  15.315252   0.055963  -0.146487  -0.340162 
Mo   5.596251  19.121283  16.909115   0.239007   0.385169  -0.738632 
Mo   8.427762  20.722075  16.777803  -0.506852   0.564780   0.561226 
S    7.482254  19.183403  18.398976   0.100683   0.185708   0.971300 
S   10.307561  20.787321  18.358739  -0.381805   0.347146   0.113298 
S   10.229069  20.720797  15.187901   0.316623   0.084191  -0.377239 
S    7.422867  19.114643  15.245503   0.092381  -0.057940   0.334683 
Mo  11.194127  19.181630  16.820059  -1.188456  -1.446930  -0.345839 
Mo  13.876554  20.772674  16.738811   0.331291   0.728433   0.308135 
S   13.003034  19.161280  18.369447   0.417364   0.236376   0.304345 
S   15.739377  20.787851  18.339564  -0.472293   0.535965   0.620976 
S   15.718512  20.763316  15.155627   0.283245   0.013809   0.046955 
S   12.966217  19.143729  15.226609   0.269970  -0.063935  -0.785146 
Mo  16.660433  19.235600  16.825466   0.545123  -1.507815  -0.710659 
Mo  19.482643  20.762921  16.810211  -0.239242   0.295306   0.198940 
S   18.485404  19.176712  18.415746   0.211139   0.380819   0.227719 
S   21.280215  20.853341  18.423439   0.038313  -0.429525   0.460128 
S   21.360731  20.769506  15.276072   0.100714   0.331246  -0.166577 
S   18.584628  19.126094  15.246903  -0.321946   0.233275   0.092616 
Mo  22.261133  19.209878  16.882396  -0.004383  -0.440007   0.507342 
Mo  24.968303  20.847848  16.965200   1.060492  -0.537464  -0.034490 
S   24.088967  19.144783  18.499367   0.194170   0.079451  -0.311006 
S   26.922015  20.822464  18.566691  -0.372682  -0.015555  -0.684366 
S   26.833105  20.850782  15.386849  -0.052359  -0.009799  -0.552334 
S   24.154731  19.213833  15.294138  -0.231948  -0.130355   0.425158 
Mo  27.862933  19.265274  16.890414  -0.242753  -0.620864   0.442979 
Mo  30.641804  20.840115  16.838495  -0.372550  -0.165815   0.905615 
S   29.722116  19.270238  18.457883   0.017952  -0.041860  -0.062796 
S   32.487769  20.813734  18.482191   0.114625   0.145912  -0.396927 
S   32.487352  20.770012  15.335810   0.472371   0.014305  -0.623843 
S   29.743268  19.197824  15.227574  -0.550324   0.548235   0.315164 
Mo   0.075705  22.407144  16.817570  -0.029660  -0.624843   0.260184 
Mo   2.870263  23.980321  16.775537  -0.286445   0.407280   0.422538 
S    1.902697  22.441755  18.432118   0.191570  -0.063996  -0.057442 
S    4.708888  23.975181  18.401644   0.082889   0.289961  -0.056577 
S    4.700547  24.036104  15.164061   0.095268  -0.977929   0.103792 
S    1.919225  22.330024  15.225386   0.047314   0.373520   0.014983 
Mo   5.654335  22.406550  16.824554  -1.080397  -0.608901  -0.242047 
Mo   8.431719  23.979453  16.699655  -0.414320   0.201180   0.561250 
S    7.531470  22.388029  18.348540   0.138430   0.081941   0.203542 
S   10.241191  24.031239  18.294274   0.163521  -0.172950   0.296893 
S   10.221802  23.961888  15.100821   0.219264   0.330155  -0.182223 
S    7.420564  22.322936  15.259016   0.614960   0.051541  -1.168821 
Mo  11.151665  22.413367  16.709828  -0.230185  -0.350716   0.173676 
Mo  13.939588  24.042258  16.720091  -0.366870  -0.543114  -0.453418 
S   12.941915  22.421100  18.323128   0.608920   0.182051  -0.178173 
S   15.748613  24.001329  18.322384   0.458079  -0.220056  -0.004690 
S   15.848753  23.983517  15.163570  -0.348138  -0.064456  -0.106347 
S   12.970659  22.436757  15.101234   0.442543  -0.306143   0.435040 
Mo  16.710769  22.345377  16.756968  -0.452291   0.786625   0.336193 
Mo  19.450861  24.034473  16.820163   0.413196  -0.175910   0.016540 
S   18.575850  22.417337  18.379017  -0.462590  -0.311577   0.063061 
S   21.316528  24.085796  18.458724  -0.400059  -0.350499  -0.001761 
S   21.274313  24.051473  15.251875   0.550645  -0.536134   0.108387 
S   18.557030  22.373349  15.212534   0.416007   0.014913  -0.084887 
Mo  22.214434  22.441562  16.895484   0.420433   0.086810  -0.421906 
Mo  25.010305  24.044623  16.980522   0.093465  -0.606503  -0.572448 
S   24.039451  22.382807  18.601128  -0.149829   0.682280  -0.690907 
S   26.908835  23.996649  18.497262   0.018949   0.113893   0.359442 
S   26.858483  24.007077  15.308955  -0.077328  -0.243593   0.477995 
S   24.102859  22.491719  15.340954  -0.073308  -0.463007   0.262313 
Mo  27.830368  22.405542  16.920880  -0.093807   0.488483   0.167079 
Mo  30.595176  23.999910  16.890418   0.340247   0.489695  -0.753419 
S   29.747558  22.484147  18.475249  -0.534267  -1.113784   0.311262 
S   32.462215  24.004392  18.427683   0.279453   0.304800   0.557558 
S   32.418199  24.043249  15.289948   0.460952  -0.177303  -0.150706 
S   29.649424  22.412224  15.290635   0.082499   0.062627  -0.167052 
