288
Lattice="33.33206 0.034915 0.030873 0.026866 25.655292 -0.000664 0.027096 9e-05 30.559198 " PBC="1 1 1" Properties="species:S:1:pos:R:3:force:R:3" Energy=" -5.285523"
Mo   0.098645  -0.105952  16.824828  -0.152861   0.641079  -0.050761 
Mo   2.919364   1.523343  16.747901  -0.725676  -0.139062   0.485750 
S    1.913058  -0.011755  18.485699   0.599306  -0.214937  -1.077739 
S    4.745392   1.564366  18.384084  -0.151646  -0.542232  -0.309577 
S    4.700401   1.533715  15.092176   0.319120   0.213040   0.635743 
S    1.940675  -0.120822  15.208157   0.052428   0.132509   0.189204 
Mo   5.659446  -0.035038  16.721695  -0.219297  -0.440325   0.286028 
Mo   8.325909   1.473810  16.703776   1.109010   0.982038   0.032054 
S    7.480103  -0.047192  18.372026  -0.006792  -0.541686  -0.592695 
S   10.170704   1.587035  18.282299   0.456458  -0.520202  -0.135244 
S   10.231352   1.602865  15.149055  -0.060234  -0.840372  -0.317273 
S    7.491360  -0.181027  15.090656  -0.202270   0.523736   0.280000 
Mo  11.165889  -0.064360  16.704479  -0.166900   0.390926   0.741899 
Mo  13.907798   1.585664  16.717245   0.077881  -0.623509   0.076938 
S   12.984933  -0.048581  18.364303  -0.065036   0.201535  -0.746443 
S   15.701790   1.543385  18.354770   0.214075   0.178719   0.057684 
S   15.831025   1.539931  15.174170  -0.593847   0.187877  -0.215139 
S   13.030256  -0.074809  15.089626  -0.171020   0.181548   0.725262 
Mo  16.577568  -0.094831  16.780760   1.127485   0.241337   0.302813 
Mo  19.522664   1.506959  16.783732  -1.046745  -0.064695  -0.271797 
S   18.485497  -0.077534  18.333542  -0.159435   0.127126   0.471421 
S   21.322996   1.524870  18.380059   0.417994   0.049219   0.174151 
S   21.373684   1.468998  15.229665   0.253256   0.079212  -0.040992 
S   18.438446  -0.126628  15.258885   0.881864   0.013789  -0.311492 
Mo  22.258660  -0.159140  16.859225  -0.613957   0.727629  -0.464014 
Mo  24.998541   1.494999  16.840029   0.377137   0.193036   0.807618 
S   24.038056  -0.219599  18.475948   0.588949   0.729574  -0.285030 
S   26.845407   1.574558  18.524920  -0.218723  -0.201749  -0.722535 
S   26.824759   1.587538  15.235572   0.187627  -0.393698   0.315076 
S   24.117901  -0.175296  15.283686   0.009064   0.271992  -0.094272 
Mo  27.735929  -0.000012  16.866455  -0.234183  -1.127104   0.360360 
Mo  30.627096   1.589123  16.796828   0.109681  -0.212446   0.754122 
S   29.628272  -0.024827  18.430279   0.145653   0.509531   0.019866 
S   32.478192   1.540778  18.390172   0.072664   0.313501   0.199122 
S   32.518805   1.532069  15.212288  -0.135955  -0.009746   0.294141 
S   29.600504   0.007248  15.363984   0.118981  -0.303108  -1.349908 
Mo   0.130430   3.104965  16.792546  -0.342522  -0.111810  -0.688292 
Mo   2.824561   4.753932  16.786033   0.214836   0.092495  -0.579620 
S    2.001081   3.113224  18.355642  -0.264567  -0.063963   0.190077 
S    4.701145   4.722821  18.363184  -0.064968   0.517835  -0.120957 
S    4.686479   4.762263  15.161407   0.031806  -0.027206   0.467797 
S    1.952383   3.113559  15.160256  -0.020013   0.136490   0.212473 
Mo   5.620773   3.121055  16.789809  -0.062978   0.497947  -1.506682 
Mo   8.453075   4.723144  16.699306  -1.152547   0.271804   0.371682 
S    7.465042   3.135206  18.322608   0.526745  -0.178819  -0.049386 
S   10.310484   4.780104  18.280863  -0.341472   0.014683   0.125647 
S   10.228864   4.723579  15.085651   0.452150   0.512994  -0.116975 
S    7.473031   3.122970  15.142637  -0.393254  -0.110740  -0.056500 
Mo  11.192942   3.173091  16.698524  -0.122965  -0.034402   0.238424 
Mo  13.888106   4.756337  16.785411   1.068517   0.098550  -0.090116 
S   12.961530   3.115835  18.381750   0.155659   0.229725  -0.505722 
S   15.762824   4.735746  18.363696   0.224451   0.001561  -0.040823 
S   15.813325   4.711776  15.207921  -0.277737   0.001914  -0.144068 
S   13.085507   3.239216  15.113429  -0.602351  -0.543580   0.019042 
Mo  16.751528   3.117733  16.786536  -0.244652  -0.076647  -0.009371 
Mo  19.550427   4.706286  16.774280  -0.373363  -0.032046  -0.586714 
S   18.596244   3.095836  18.384491   0.114311   0.190462  -0.155412 
S   21.393682   4.739111  18.368538  -0.151464   0.195681   0.181038 
S   21.390392   4.745613  15.216703   0.120751  -0.174120  -0.740820 
S   18.619837   3.096991  15.151141  -0.164728   0.065462   0.437216 
Mo  22.283149   3.153646  16.801382   0.240568  -0.929761  -0.107659 
Mo  25.069132   4.782958  16.834235   1.002123  -0.686278  -0.018893 
S   24.118254   3.145462  18.406920  -0.031522  -0.033534   0.059390 
S   26.967106   4.806819  18.407556  -0.500500  -0.407449   0.451167 
S   26.972178   4.730411  15.288629  -0.176099   0.298014  -0.118600 
S   24.164993   3.161940  15.248970  -0.239874  -0.229467  -0.135819 
Mo  27.824086   3.113312  16.878375   0.316325   0.545171  -0.490299 
Mo  30.673418   4.758825  16.799038  -0.463140   0.235210  -0.151066 
S   29.716144   3.166626  18.397109   0.107488  -0.070807   0.243993 
S   32.518856   4.727886  18.380918  -0.227895   0.007178   0.516131 
S   32.493951   4.727901  15.187972   0.247884   0.220868   0.461218 
S   29.713912   3.207757  15.215175  -0.448527  -0.451069   0.056192 
Mo  -0.000743   6.357044  16.814835   0.285667   0.248468  -0.816735 
Mo   2.820020   7.924623  16.757633   0.548674   0.237003   0.027447 
S    1.829317   6.363473  18.353525   0.572339  -0.241023   0.345732 
S    4.683713   7.944660  18.397428  -0.164907  -0.273414  -0.234220 
S    4.718521   7.951580  15.198650  -0.282429   0.317139  -0.218449 
S    1.845911   6.366684  15.196918  -0.039185  -0.457268  -0.062608 
Mo   5.633891   6.378311  16.754626  -0.709177  -1.154629  -0.114010 
Mo   8.334329   7.996175  16.818719   0.600853  -0.280727  -1.294754 
S    7.428930   6.296282  18.286211   0.826840   0.143492   0.884826 
S   10.243367   7.894683  18.305308  -0.088848   0.425269   0.620264 
S   10.152753   8.070041  15.159075   0.058814  -0.616286  -0.145826 
S    7.482003   6.370079  15.136276  -0.015820   0.045353   0.409062 
Mo  11.146439   6.403213  16.667775   0.340706  -0.747927   0.127102 
Mo  13.988494   7.988697  16.739968  -0.304083  -0.119726  -0.542668 
S   13.017259   6.392636  18.340672  -0.292225   0.201890  -0.310475 
S   15.888698   7.950230  18.255663  -0.674235  -0.146405   1.031600 
S   15.859340   7.964185  15.105465  -0.144957  -0.337917   0.469922 
S   13.037297   6.356033  15.143370   0.079241   0.329296   0.042153 
Mo  16.744464   6.309639  16.754646   0.589020   0.494861  -0.955065 
Mo  19.588702   7.925832  16.752842  -0.304644   0.046801  -0.111870 
S   18.620817   6.276170  18.310552  -0.147174   0.534340   0.383617 
S   21.396030   7.879337  18.384598   0.187944   0.043862  -0.278568 
S   21.467057   7.996971  15.145079   0.120210  -0.384747   0.610367 
S   18.658998   6.362183  15.115598  -0.306758  -0.467305   0.752658 
Mo  22.362549   6.319035  16.754060  -0.490842   0.906758  -0.269277 
Mo  25.164632   7.984424  16.899762  -0.767027  -0.248330   0.321829 
S   24.102199   6.325172  18.380516   0.616871   0.452196   0.655164 
S   27.004456   8.004253  18.494339  -0.006169  -0.224467  -0.093383 
S   26.974354   8.074528  15.344524   0.224984  -0.566916  -0.661015 
S   24.330291   6.410802  15.218066  -0.790444  -0.070712   0.028236 
Mo  27.917699   6.369349  16.858932   0.023649   0.704084  -0.317535 
Mo  30.633049   8.007369  16.861423  -0.298632   0.200645   0.109412 
S   29.798303   6.341254  18.413122  -0.321332   0.125212   0.245242 
S   32.471396   8.095770  18.480355   0.022215  -0.922623  -0.189056 
S   32.396890   8.029508  15.256471   0.542590  -0.157857  -0.126587 
S   29.736040   6.406692  15.196303  -0.087112  -0.136934   0.552148 
Mo   0.076087   9.555933  16.805703  -0.269754   0.342329  -0.294145 
Mo   2.858999  11.178601  16.708345  -0.379939  -0.098526   1.187796 
S    1.960005   9.518921  18.321734  -0.010887   0.643207   0.268326 
S    4.659424  11.126944  18.391197  -0.105140   0.018028  -0.037208 
S    4.768906  11.135425  15.235594  -0.403385   0.127934  -0.776431 
S    1.890779   9.552250  15.168592   0.205757   0.038047  -0.204452 
Mo   5.620875   9.551464  16.832174   0.240501  -0.054146  -0.585997 
Mo   8.395623  11.131357  16.844230  -0.002746   0.144377   0.585110 
S    7.436809   9.559384  18.440813   0.131135  -0.121105   0.140857 
S   10.238112  11.061454  18.490877   0.095687   0.283286  -0.668031 
S   10.208034  11.212068  15.252066   0.304415  -0.268277  -0.114013 
S    7.484907   9.634167  15.159444  -0.404833  -0.615748   0.730309 
Mo  11.163461   9.551976  16.764587  -0.061431   0.579043  -0.016166 
Mo  13.938031  11.217797  16.766407  -0.014178  -0.887878  -0.192067 
S   12.992634   9.601160  18.330953   0.659691  -0.387658   0.040804 
S   15.735502  11.122181  18.382976   0.761023  -0.125622  -0.373750 
S   15.882085  11.205909  15.153804  -0.472758  -0.139663   0.433510 
S   13.027296   9.582120  15.105304   0.055960   0.221954   0.917912 
Mo  16.764847   9.538722  16.724388   0.382355   0.806799  -0.459427 
Mo  19.648049  11.148426  16.884153  -0.963204  -1.001612  -0.658481 
S   18.544633   9.473704  18.372670   0.765539   0.174264  -0.308082 
S   21.454797  10.981101  18.536919  -0.175938   0.770269  -0.493714 
S   21.503946  11.168100  15.276185  -0.175329  -0.192313   0.247341 
S   18.743246   9.592768  15.160554  -0.378569   0.134976   0.676811 
Mo  22.417178   9.511400  16.844475  -1.003214   0.230361   0.283752 
Mo  25.148258  11.219145  16.926561  -0.463153  -0.156056   0.932284 
S   24.198144   9.553042  18.500556   0.303283   0.171813  -0.061605 
S   27.053785  11.244334  18.558562  -0.884495   0.296325  -0.369032 
S   26.951306  11.281435  15.322517  -0.025319   0.145237  -0.198408 
S   24.252899   9.579646  15.325401   0.416621   0.385770  -0.456470 
Mo  27.845671   9.682100  16.904732   0.944878  -0.812476   0.387115 
Mo  30.625679  11.219225  16.889898   0.315387   0.233904   0.289166 
S   29.722902   9.613321  18.475834  -0.124646  -0.052666   0.140468 
S   32.527843  11.196339  18.449192  -0.213472   0.065121  -0.120647 
S   32.410031  11.147678  15.240895   0.514689   0.749000   0.329815 
S   29.689505   9.634786  15.313041  -0.120813  -0.039059  -0.254335 
Mo   0.089067  12.781090  16.816271  -0.451749  -0.220390  -0.088909 
Mo   2.799453  14.419522  16.876480   1.090010  -1.119030  -0.196927 
S    1.939491  12.734559  18.440403  -0.099154  -0.026907  -0.716942 
S    4.694965  14.220122  18.474546  -0.184438   0.908988  -0.124381 
S    4.696726  14.344546  15.309321  -0.163094   0.463279  -0.089222 
S    1.912661  12.857516  15.179954   0.000277  -0.184726   0.277203 
Mo   5.637563  12.713450  16.829113  -0.057915  -0.003102   0.523224 
Mo   8.358137  14.340830  16.889629   0.394277   0.181440   0.039819 
S    7.475257  12.736303  18.458463  -0.116147  -0.332601   0.126625 
S   10.232736  14.368257  18.479616   0.032088  -0.015597   0.044901 
S   10.196077  14.344214  15.304334   0.290038   0.339996   0.082586 
S    7.495476  12.715023  15.281142  -0.122635   0.348698  -0.396462 
Mo  11.121784  12.743316  16.893718   0.334675  -0.117667  -0.052971 
Mo  13.896960  14.325795  16.823769   0.304303   1.044768   0.684100 
S   12.981906  12.785584  18.444353   0.275359  -0.398127  -0.036577 
S   15.758861  14.290434  18.431987   0.311769   0.006218  -0.013202 
S   15.796504  14.311738  15.317567   0.109351   0.175880  -0.674841 
S   12.953721  12.781934  15.245409  -0.276781   0.134222  -0.337885 
Mo  16.787348  12.722021  16.834062  -0.404743  -0.359370   0.592492 
Mo  19.511057  14.356936  16.987434   0.587175   0.182872  -0.147172 
S   18.632533  12.643834  18.461602  -0.378493   0.461729   0.556911 
S   21.348334  14.431628  18.607915   0.217091  -0.591521  -0.539317 
S   21.365618  14.369027  15.395272  -0.126406  -0.050598  -0.195579 
S   18.686420  12.820583  15.320016   0.080025  -0.546682  -0.125845 
Mo  22.264066  12.736502  16.952748   0.636910   0.548967   0.458941 
Mo  25.091560  14.431522  16.920566  -0.155129   0.425647   0.587280 
S   24.092376  12.846745  18.492137   0.781206  -0.406244   0.410853 
S   26.981158  14.400295  18.547603  -0.387658   0.654159  -0.463638 
S   26.915354  14.436665  15.334860   0.335521  -0.034809  -0.267461 
S   24.188965  12.840181  15.410596  -0.591399  -0.391724  -0.704792 
Mo  27.894475  12.869780  16.920128   0.218925  -0.688424   0.076430 
Mo  30.656739  14.433148  16.934576  -0.763285  -0.008139   0.030402 
S   29.738556  12.840152  18.551564   0.064805  -0.148365  -0.498625 
S   32.498821  14.405933  18.483098   0.342305  -0.216436   0.389927 
S   32.409250  14.474322  15.342014   0.932595  -0.248811  -0.441808 
S   29.740369  12.844775  15.286932  -0.217400   0.153709   0.404251 
Mo   0.109683  15.994183  16.915432  -0.352770   0.243545  -0.580174 
Mo   2.865359  17.626222  16.861661   0.531531  -0.444676   0.219115 
S    2.000787  16.027489  18.479169  -0.451160   0.023412   0.229200 
S    4.774376  17.646095  18.449474  -0.539988  -0.324829   0.158322 
S    4.733927  17.596132  15.269708   0.062592  -0.159515   0.456630 
S    1.888278  16.019689  15.273992   0.363989   0.166971   0.041347 
Mo   5.620263  15.942290  16.932254  -0.152190   0.071919  -0.601867 
Mo   8.419608  17.506552  16.887600  -0.838278   0.400707  -0.506202 
S    7.478420  15.958005  18.497384  -0.152875  -0.365799   0.170546 
S   10.187110  17.516641  18.477523   1.001257   0.632082   0.005413 
S   10.202400  17.448259  15.243082   0.405714   0.756283   0.255602 
S    7.420641  15.906561  15.289586   0.105122   0.298198   0.168349 
Mo  11.200717  15.977281  16.892029  -1.119272  -0.923098  -0.255647 
Mo  13.936358  17.516402  16.813786   0.282974   0.908435  -0.550103 
S   13.053257  16.028148  18.437697  -0.049046  -0.850021   0.405969 
S   15.774002  17.573683  18.378470  -0.006631  -0.332144   0.568650 
S   15.765756  17.491334  15.182519   0.375447  -0.312463   0.390922 
S   12.958498  15.943184  15.253023   0.346590  -0.211796  -0.349562 
Mo  16.730399  15.921311  16.876298  -1.058496   0.302392  -0.348523 
Mo  19.459418  17.594614  16.910423   0.648884  -0.463876  -0.675755 
S   18.532565  16.019946  18.450542   0.034157  -0.396145   1.234096 
S   21.346505  17.595551  18.523487  -0.321111   0.287237  -0.262755 
S   21.308940  17.597145  15.287666   0.137467  -0.275657   0.468478 
S   18.583656  15.868473  15.369709   0.330991   0.764815  -0.673979 
Mo  22.273143  15.995849  16.937493  -0.164137   0.066231  -0.390222 
Mo  25.044893  17.630580  16.844079   0.070203  -0.654284   0.697064 
S   24.133199  16.046836  18.478507   0.333680   0.048506   0.143787 
S   26.934610  17.596272  18.419377  -0.497781   0.436415   0.588754 
S   26.904190  17.586113  15.250971   0.049923   0.126056  -0.046751 
S   24.106130  16.006349  15.265622   0.036297  -0.191778   0.573252 
Mo  27.874689  16.053174  16.887037  -0.068691  -0.890641   0.308805 
Mo  30.662088  17.655705  16.944513  -0.000323  -0.172496   0.036081 
S   29.745714  16.049093  18.522837  -0.301216   0.059875  -0.111510 
S   32.548531  17.628095  18.508383  -0.241345   0.409421   0.016822 
S   32.474781  17.593843  15.290125   0.247671   0.377302   0.601489 
S   29.739435  16.065780  15.349849   0.018573  -0.009992  -0.272311 
Mo   0.117187  19.221709  16.840326  -0.203039  -1.320537   1.098675 
Mo   2.841535  20.831484  16.900048   0.653577  -0.616649  -0.459303 
S    1.948896  19.197488  18.479376  -0.088708   0.103789  -0.056957 
S    4.752029  20.834900  18.475020  -0.162616   0.061639  -0.482138 
S    4.633952  20.786550  15.267367   0.406410  -0.291914  -0.245773 
S    1.947044  19.190300  15.294619   0.075597   0.348199  -0.463244 
Mo   5.682539  19.219026  16.855282  -0.696703  -0.323625  -0.109321 
Mo   8.402126  20.773403  16.831265   0.219286  -0.076295   0.067998 
S    7.488626  19.165359  18.482154   0.354872   0.177812  -0.289578 
S   10.249400  20.804314  18.383547   0.407114  -0.347559   0.265421 
S   10.242081  20.743003  15.266116   0.275223  -0.106159  -0.550183 
S    7.544060  19.156487  15.294368  -0.376532  -0.389710  -0.412450 
Mo  11.183673  19.143045  16.806523  -0.479105  -0.577090   0.427856 
Mo  13.925686  20.753200  16.750528  -0.062205   0.230521   0.442397 
S   13.041755  19.167627  18.392486  -0.162243  -0.022843  -0.183072 
S   15.719802  20.733872  18.377862   0.234269   0.135486  -0.162201 
S   15.768708  20.728059  15.215482   0.131890   0.190042  -0.556124 
S   13.063667  19.151641  15.195253  -0.724848  -0.446465  -0.119399 
Mo  16.673752  19.121851  16.783718   0.081931   0.565751  -0.008213 
Mo  19.444271  20.780817  16.860910  -0.244834  -0.033719  -0.335524 
S   18.464497  19.180864  18.414767   0.171429   0.226552   0.498198 
S   21.285879  20.799178  18.490244  -0.111705  -0.292464  -0.167545 
S   21.338921  20.778035  15.254482  -0.390917  -0.332296   0.233049 
S   18.557579  19.129753  15.263806   0.148548   0.307559  -0.197394 
Mo  22.230674  19.187251  16.887973   0.641727   0.038297   0.589098 
Mo  25.064940  20.727310  16.842638  -0.327263   0.401351   0.738839 
S   24.160746  19.173373  18.569852  -0.362904   0.199735  -1.391364 
S   26.905169  20.826081  18.397003   0.132292  -0.327365   0.512612 
S   26.940170  20.806642  15.228683  -0.231938  -0.233574   0.041594 
S   24.079617  19.181866  15.273418  -0.055679  -0.086641  -0.145314 
Mo  27.809440  19.192393  16.839393   0.873770   0.521712   0.807466 
Mo  30.672027  20.832441  16.934243   0.042895   0.085015  -0.224119 
S   29.679047  19.201751  18.567852  -0.052610   0.427083  -0.946827 
S   32.565683  20.821876  18.540696  -0.432092   0.122074  -0.408114 
S   32.560225  20.770273  15.310360  -0.625435   0.974457  -0.032968 
S   29.708735  19.263600  15.385701   0.352302  -0.286784  -0.753563 
Mo   0.109526  22.415786  16.901714  -0.071786  -0.728151  -0.784022 
Mo   2.926244  23.994210  16.839143  -0.729446   0.752525   0.040103 
S    1.984146  22.424162  18.435127  -0.190667   0.329748   0.775286 
S    4.752747  24.054531  18.356370   0.601318  -0.209063   0.158590 
S    4.746925  23.969139  15.175174  -0.255527   0.095793   0.079381 
S    1.957190  22.460524  15.285323  -0.278347  -0.791481  -0.156430 
Mo   5.656955  22.371218  16.769211  -0.493892   0.651450   0.238340 
Mo   8.420058  23.918957  16.728975  -0.224328   1.114160   0.199772 
S    7.457754  22.435658  18.317925   0.364452  -0.510583   1.005414 
S   10.252246  23.963041  18.344990   0.402302   0.285867  -0.287291 
S   10.276229  23.962320  15.189136   0.281501  -0.409285  -0.492324 
S    7.481804  22.303089  15.128331   0.076649  -0.051765   0.390754 
Mo  11.247559  22.348812  16.789820  -1.194766   0.651184  -0.116090 
Mo  13.953921  23.984193  16.766372  -0.612718  -0.070406  -0.311996 
S   13.078810  22.378039  18.366741  -0.166094   0.073267   0.070000 
S   15.760307  24.005032  18.409019  -0.325347  -0.363826  -0.065756 
S   15.752287  23.966353  15.154043   0.032592  -0.005721  -0.155790 
S   12.992861  22.366848  15.120652   0.550962   0.073386   0.432337 
Mo  16.633713  22.394351  16.781979   0.413851  -0.475649   0.480237 
Mo  19.456470  23.921341  16.847782  -0.833623   0.696277  -0.863646 
S   18.417828  22.374732  18.450241   0.534945  -0.034999  -0.251213 
S   21.196912  24.001869  18.434564   1.203699  -0.758925   0.429979 
S   21.323187  23.958128  15.231626  -0.018394  -0.427292   0.378281 
S   18.495529  22.402238  15.230694   0.333617  -0.524060   0.025630 
Mo  22.229682  22.318667  16.865771   0.059153   1.094390   0.016340 
Mo  25.089200  23.896480  16.859503  -0.827116   0.336594  -0.047142 
S   24.095397  22.343701  18.442847   0.174577  -0.385150  -0.011954 
S   26.866241  23.971315  18.506585   0.549218   0.196607  -0.697569 
S   26.883531  23.914707  15.207515   0.330443   0.957481   0.500983 
S   24.126377  22.275913  15.281370  -0.195549   0.426614  -0.124477 
Mo  27.837145  22.407217  16.838715   0.384246   0.260982   0.087266 
Mo  30.598855  24.026561  16.869001   0.864039   0.563776   0.480102 
S   29.693258  22.425815  18.424001  -0.115484   0.105288   0.653141 
S   32.505076  24.035465  18.470701  -0.411562   0.130023   0.254666 
S   32.493941  24.011292  15.310762  -0.162333  -0.329699  -0.247452 
S   29.741557  22.501113  15.274842  -0.176851  -1.192214  -0.033383 
