288
Lattice="33.336894 0.035073 0.030872 0.026988 25.646914 -0.000664 0.027095 9e-05 30.43156 " PBC="1 1 1" Properties="species:S:1:pos:R:3:force:R:3" Energy=" -5.285578"
Mo   0.023871  -0.069559  16.756935   0.473678   0.403485   0.022297 
Mo   2.825030   1.570467  16.841433  -0.254478  -0.024894   0.085982 
S    1.796565  -0.039044  18.385680   0.588898  -0.009956   0.148856 
S    4.725606   1.584357  18.429548  -0.273286  -0.528089   0.240520 
S    4.681085   1.556650  15.301984   0.310730   0.199737  -0.539839 
S    1.932543   0.001734  15.182781  -0.357017  -0.020154   0.283327 
Mo   5.571775  -0.078879  16.834608   1.159644   0.384074   0.411199 
Mo   8.484780   1.532091  16.803954  -0.648929  -0.340042   0.759298 
S    7.568590  -0.153899  18.410435  -0.684553   0.421262  -0.733299 
S   10.334026   1.428031  18.397262   0.111366   0.470366  -0.417793 
S   10.308876   1.516643  15.212261  -0.089785  -0.012362  -0.291820 
S    7.453431  -0.054675  15.231935  -0.168407   0.179351  -0.103798 
Mo  11.212650  -0.165201  16.742666  -0.919485   0.616482   0.394281 
Mo  13.981590   1.512458  16.739356  -0.912723  -0.146680  -0.494645 
S   13.065327  -0.161428  18.292421   0.001376   0.301400   0.356735 
S   15.736924   1.461961  18.351030   0.944899   0.321439  -0.503279 
S   15.822774   1.503717  15.092446  -0.365697   0.603194  -0.035317 
S   12.982027  -0.101597  15.115455   0.601477   0.237134  -0.152228 
Mo  16.770636  -0.027173  16.662035  -0.658324  -0.802410   0.403549 
Mo  19.516639   1.547524  16.761442  -0.571721   0.264044  -0.490421 
S   18.563000  -0.009300  18.328110  -0.175805  -0.302496  -0.057834 
S   21.315552   1.519104  18.374878   0.572967   0.211951   0.121625 
S   21.357058   1.577721  15.224891   0.575728  -0.367945  -0.298876 
S   18.610698  -0.038639  15.083051   0.176103   0.217001   0.340480 
Mo  22.301201  -0.063666  16.791129  -0.013281   0.223100   0.404829 
Mo  25.080462   1.601474  16.845034   0.296146  -0.480565  -0.508246 
S   24.225366   0.003668  18.408048  -1.119325  -0.144125   0.329404 
S   26.912619   1.539953  18.515559   0.265626   0.005607  -0.959141 
S   26.939570   1.534773  15.256760   0.115999   0.212096   0.575367 
S   24.204480  -0.093355  15.254014  -0.256373   0.667814  -0.121572 
Mo  27.889753  -0.097041  16.867255  -1.147001   1.216976   0.225092 
Mo  30.574213   1.535405  16.849047   1.146685   0.781705   0.097857 
S   29.704516  -0.014680  18.524274  -0.246950  -0.194982  -0.486929 
S   32.495310   1.586431  18.382913  -0.552251  -0.270055   0.411104 
S   32.520047   1.601094  15.223827  -0.810780   0.197179   0.358205 
S   29.654459   0.030785  15.227380   0.087804  -0.457831  -0.144526 
Mo   0.038525   3.211707  16.843613   0.586063  -0.654347  -0.920202 
Mo   2.814313   4.739855  16.880486   0.958931   0.619740  -0.723675 
S    1.843831   3.144717  18.422484   0.481252  -0.004252   0.563671 
S    4.741171   4.773649  18.375082  -0.044547  -0.131823   0.896408 
S    4.719326   4.762729  15.282448  -0.141475  -0.548580  -0.031562 
S    1.932201   3.183265  15.227060  -0.372248  -0.003692   0.405253 
Mo   5.695810   3.135688  16.869342  -0.074471   0.163470  -0.507375 
Mo   8.431193   4.754430  16.719304   1.219345   0.447853   0.545159 
S    7.648351   3.226752  18.421498  -0.609926  -0.650321  -0.315636 
S   10.350964   4.773751  18.350263  -0.818625   0.100084  -0.248629 
S   10.282657   4.807418  15.170449  -0.050072  -0.867842  -0.468598 
S    7.521603   3.104293  15.225893  -0.366923  -0.093559  -0.304722 
Mo  11.210416   3.151796  16.775053  -0.375320  -0.531563  -0.348376 
Mo  13.969521   4.740679  16.779467  -0.633063   0.474214  -0.162181 
S   12.983726   3.148756  18.335529   0.894109  -0.485097   0.350849 
S   15.751692   4.637452  18.379581   0.684418   0.275883   0.204033 
S   15.812731   4.821594  15.212674   0.330359  -0.489198   0.000591 
S   13.060601   3.164128  15.189309  -0.087656  -0.249037  -0.284743 
Mo  16.723130   3.100122  16.711132   0.115844   0.301550   0.730554 
Mo  19.575722   4.713230  16.804218  -1.753203   0.424614  -0.119474 
S   18.577942   3.136466  18.382523  -0.207121  -0.338141  -0.446624 
S   21.335163   4.707651  18.417655   0.596285   0.221341   0.383837 
S   21.336063   4.744978  15.190155   0.740369   0.111540   0.194010 
S   18.606535   3.174972  15.109995   0.006117  -0.197003   0.820731 
Mo  22.302818   3.168169  16.810850  -0.507227  -0.338567   0.325600 
Mo  25.079665   4.796748  16.785246  -0.091812   0.267330   0.374409 
S   24.161228   3.206413  18.411164  -0.185181   0.143986   0.018397 
S   26.909066   4.759031  18.434072  -0.179961   0.285083   0.103919 
S   26.970597   4.736536  15.261701  -0.070887   0.263592  -0.053348 
S   24.102755   3.214710  15.241822   0.655587  -0.329726  -0.420370 
Mo  27.869465   3.158824  16.894605  -0.012927  -0.334548  -0.541661 
Mo  30.674703   4.769639  16.895424  -0.814480   0.658809   0.131199 
S   29.721031   3.169009  18.473256   0.006568  -0.234448  -0.054558 
S   32.571713   4.862264  18.502309  -0.688434  -0.353617  -0.007682 
S   32.445203   4.827606  15.307932   0.615649   0.307255  -0.525166 
S   29.743480   3.168989  15.260994  -0.411511   0.167126   0.359278 
Mo   0.107480   6.403038  16.865526   0.161315  -0.324467  -1.390893 
Mo   2.954293   7.957085  16.800358   0.016917   0.114349  -0.587235 
S    1.971215   6.448144  18.424165   0.074862  -0.320171   0.227958 
S    4.819553   7.997800  18.391996  -0.030949  -0.199736  -0.010714 
S    4.813720   7.920568  15.152992  -0.239083   0.034338   0.828592 
S    2.020455   6.334899  15.211082  -0.629488   0.128143   0.605556 
Mo   5.725277   6.326020  16.814772  -0.159272   1.321495  -0.529740 
Mo   8.419870   8.027634  16.693460   0.787481  -0.052423   0.171468 
S    7.676061   6.402879  18.300253  -0.936178  -0.092959   0.473042 
S   10.305928   7.994770  18.314827  -0.329817   0.434567  -0.432168 
S   10.291883   7.987748  15.097776  -0.275220  -0.155173  -0.028480 
S    7.525068   6.368707  15.105333  -0.329964  -0.111347   0.408834 
Mo  11.181308   6.375186  16.715219   0.770883   0.072635   0.492437 
Mo  13.962532   7.882129  16.734109   0.387327   0.648112  -0.082065 
S   12.987366   6.337421  18.394262   0.319953   0.105792  -0.599770 
S   15.779739   7.991039  18.380168   0.239000  -0.024708   0.005630 
S   15.907123   7.927130  15.228218  -0.273997  -0.317731   0.140768 
S   13.038067   6.308841  15.105018   0.100274   0.022302   0.422967 
Mo  16.786415   6.318185  16.892346  -1.045395   0.046490  -1.117226 
Mo  19.446274   7.937305  16.802268   1.036282   0.277894   0.179453 
S   18.576867   6.305827  18.439909   0.707562   0.103676   0.054993 
S   21.322038   7.979807  18.371530   0.070774  -0.148361   0.320076 
S   21.402010   7.911464  15.234340  -0.904938  -0.046043  -0.234656 
S   18.596316   6.330499  15.226106  -0.139575  -0.211069   0.198578 
Mo  22.268169   6.337754  16.841493   0.261666   0.031260  -0.297223 
Mo  25.046655   8.052102  16.783105   0.728600  -0.201768   0.713319 
S   24.178173   6.427000  18.366303  -0.296301  -0.215824   0.318856 
S   26.922853   8.075256  18.471233  -0.531006  -0.658354  -0.490582 
S   26.894251   8.007336  15.254586   0.598434   0.099021   0.148656 
S   24.113558   6.474830  15.217166   0.125083  -0.735213   0.057662 
Mo  27.819193   6.389302  16.872486   0.271991   0.036019   0.183500 
Mo  30.565482   8.065542  16.856360   0.863297  -0.865505   0.392279 
S   29.708085   6.360440  18.486700  -0.139663   0.519236  -0.572215 
S   32.528786   8.003776  18.435088  -0.584027   0.759215  -0.005879 
S   32.514276   8.041974  15.271916  -0.543004  -0.249155   0.082331 
S   29.672669   6.403889  15.301175   0.338306  -0.208567   0.088780 
Mo   0.150963   9.578092  16.781301  -0.095104  -0.082229   0.190129 
Mo   2.905061  11.185101  16.773839   0.270047  -0.137706  -0.042120 
S    2.039101   9.603946  18.340781  -0.239150  -0.406364   0.508516 
S    4.804979  11.309117  18.362991  -0.334855  -0.785274  -0.158479 
S    4.698072  11.207875  15.157709   0.152760  -0.322446  -0.279724 
S    2.004485   9.533622  15.178674  -0.006001   0.214220   0.171620 
Mo   5.641432   9.616422  16.775325   0.293474  -0.018577  -0.703429 
Mo   8.431492  11.247805  16.610377   0.984660  -0.365694   0.907176 
S    7.517590   9.700331  18.274048   0.339624  -0.215660   0.078175 
S   10.339978  11.218951  18.229101  -0.286731   0.233518  -0.512910 
S   10.324722  11.127902  15.061458  -0.410814  -0.006398  -0.597433 
S    7.478470   9.646005  15.140684  -0.424329  -0.500550  -0.630360 
Mo  11.256657   9.561037  16.668483  -0.492489  -0.049860   0.006888 
Mo  13.957244  11.121537  16.614676   0.968669   0.179480   0.048524 
S   13.058278   9.555355  18.248879   0.143262   0.106292   0.376786 
S   15.763036  11.309790  18.222754   0.178170  -0.570768   0.529776 
S   15.937139  11.199902  15.111562  -0.645352  -0.663033  -0.371347 
S   13.123984   9.462739  15.046529  -0.267494  -0.236374   0.240030 
Mo  16.765306   9.591815  16.775331  -0.519867  -0.075378   0.059081 
Mo  19.453585  11.101864  16.765917   1.250553   1.022320  -0.722804 
S   18.550231   9.563998  18.435688   0.070852   0.019365  -0.341422 
S   21.362631  11.171692  18.304055  -0.052118  -0.031282   0.023486 
S   21.407052  11.155318  15.140417  -0.483262  -0.145117   0.586761 
S   18.574220   9.536198  15.162582   0.096640  -0.259748   0.005819 
Mo  22.295782   9.527824  16.769939   0.084976   1.042299  -0.402962 
Mo  25.056682  11.259169  16.766582  -0.420942  -0.359175   0.620938 
S   24.107387   9.608629  18.366301   0.205743   0.384589   0.120144 
S   26.864661  11.295751  18.407597   0.018526  -0.400801   0.369551 
S   26.919191  11.252073  15.217752   0.264382  -0.266727   0.218492 
S   24.174158   9.621864  15.143961  -0.314271   0.060614   0.350477 
Mo  27.832953   9.641811  16.885006  -0.689919   0.133240  -1.097885 
Mo  30.661268  11.141596  16.859784   0.012470   0.541633  -0.230099 
S   29.600184   9.650637  18.487420   0.814448  -0.408290  -0.030816 
S   32.536443  11.147051  18.417060  -0.250744  -0.147350   0.786143 
S   32.561518  11.261051  15.242970  -0.424197  -0.452503   0.371529 
S   29.621213   9.639179  15.229576   0.445040  -0.344610   0.315157 
Mo   0.079231  12.752779  16.904097   0.507042   0.802707  -0.863688 
Mo   2.847181  14.364894  16.784771  -0.379898   0.481846  -0.046988 
S    2.031053  12.750435  18.389733  -0.536362   0.092461   0.581815 
S    4.737346  14.358778  18.326459   0.265519   0.437965  -0.296404 
S    4.551461  14.365017  15.135292   1.011557   0.069848  -0.464499 
S    1.893011  12.775262  15.268607  -0.170997  -0.074947  -0.644255 
Mo   5.658487  12.814369  16.686009   0.109601   0.289037   0.172914 
Mo   8.466713  14.482769  16.560222  -0.802737  -0.921852   0.506134 
S    7.611181  12.843092  18.207791  -0.324119   0.534746   0.010420 
S   10.333872  14.456208  18.100830   0.089996  -0.221087   0.146037 
S   10.269384  14.393712  14.916672   0.145432  -0.181181  -0.121412 
S    7.466931  12.819949  15.049560   0.116922   0.309607  -0.297972 
Mo  11.234541  12.793873  16.528712  -0.925537   0.051836   0.676972 
Mo  13.973256  14.372251  16.480618   0.132698  -0.341014  -0.168413 
S   13.034592  12.801482  18.097074   0.184630   0.205292   0.529972 
S   15.669322  14.450451  18.202067   0.561711  -0.640158  -0.119949 
S   15.890869  14.394813  14.912629  -0.333670  -0.191064   0.616241 
S   13.059384  12.618764  14.993719   0.203611   0.906321  -0.895947 
Mo  16.764418  12.836244  16.632851  -0.910929   0.526007   0.291891 
Mo  19.494002  14.369226  16.703653   0.310766   0.277085   0.324910 
S   18.535843  12.755201  18.267320   0.158640   0.283098   0.539300 
S   21.324619  14.377492  18.312560   0.164182   0.097009   0.077263 
S   21.372408  14.462250  15.141772   0.315002  -0.251732   0.278433 
S   18.635440  12.799555  15.121537   0.160799  -0.681565  -0.371725 
Mo  22.337645  12.807707  16.729211  -1.088423   0.056565   0.196567 
Mo  25.089043  14.387556  16.779282  -0.447574   0.298216  -0.208118 
S   24.100385  12.850049  18.439255   0.273774  -0.293218  -0.865058 
S   26.904502  14.440173  18.413466   0.193942  -0.659042  -0.030003 
S   26.927193  14.371919  15.163937   0.302324  -0.153261   0.389899 
S   24.152556  12.840793  15.154689   0.232783  -0.106126  -0.164887 
Mo  27.866189  12.796779  16.842030   0.380424   0.689866  -0.273974 
Mo  30.646756  14.372449  16.839328   0.479315  -0.263886   0.825371 
S   29.797392  12.768614  18.465596  -0.666690  -0.072750  -0.369236 
S   32.523626  14.472894  18.469552  -0.452320  -0.686308   0.234033 
S   32.499345  14.385553  15.293130   0.200945  -0.011073  -0.034358 
S   29.784200  12.749194  15.272702  -0.506674  -0.005080  -0.119792 
Mo   0.059483  15.990605  16.851984   0.351784  -0.185584  -0.703223 
Mo   2.842118  17.586282  16.764585   0.136403  -0.410020  -0.365289 
S    1.958613  15.956479  18.362674  -0.016968   0.333046   0.460336 
S    4.716336  17.512852  18.326558   0.061295   0.237381  -0.219702 
S    4.614194  17.563000  15.084418   0.230370   0.280871   0.376354 
S    1.836547  15.994345  15.179537   0.377053  -0.205012   0.414531 
Mo   5.619881  15.973808  16.652028  -0.544188  -0.255281   0.133620 
Mo   8.362171  17.589593  16.610250   0.050559   0.693499   0.140775 
S    7.458210  16.030381  18.214717   0.613871  -0.342654   0.075525 
S   10.294239  17.566473  18.126371  -0.087250  -0.205845   0.016197 
S   10.142719  17.601950  14.981524   0.636405   0.262166  -0.241368 
S    7.450035  16.034009  15.009604  -0.340407  -0.073388  -0.192918 
Mo  11.233696  15.989797  16.471640  -0.303548   0.380817   0.555286 
Mo  13.959567  17.605751  16.488240   0.051127   0.176477   0.293017 
S   13.119699  16.008399  18.065900  -0.824488  -0.218012   0.109459 
S   15.743829  17.622499  18.188572   0.034164  -0.162209  -0.179826 
S   15.843458  17.594705  14.996009   0.354982   0.198969  -0.112079 
S   13.057756  15.972944  14.876575   0.115144   0.085159  -0.068518 
Mo  16.661551  15.972602  16.629062   0.630289   0.432039  -0.036031 
Mo  19.498477  17.572185  16.765704   0.204318   0.940989  -0.005349 
S   18.501841  15.964433  18.262747  -0.260083  -0.215935   0.379054 
S   21.349408  17.555376  18.444519  -0.413102   0.437628  -0.128290 
S   21.391302  17.602223  15.267866  -0.269385   0.556634  -0.838814 
S   18.575619  15.998390  15.150605   0.308807  -0.006932  -0.434273 
Mo  22.291348  16.059741  16.805146  -0.056539  -1.580451  -0.233198 
Mo  25.036911  17.595269  16.780848   0.469133   0.545562   0.554159 
S   24.148732  15.977381  18.328308   0.015654   0.142989   0.738656 
S   26.898780  17.595287  18.387616   0.304428  -0.234901  -0.179516 
S   26.898288  17.570053  15.248895   0.501592   0.213747  -0.328710 
S   24.119925  16.024323  15.169306   0.238188  -0.180191   0.221513 
Mo  27.862733  15.920857  16.788169  -0.010547   1.053843   0.660981 
Mo  30.616237  17.510382  16.867124   0.363565   0.490070  -0.227597 
S   29.714552  15.881021  18.499187  -0.445845   0.637476  -0.769158 
S   32.519066  17.632415  18.472403  -0.649500  -0.246581   0.047163 
S   32.452078  17.558762  15.254977   0.091635   0.195988   0.237230 
S   29.734799  15.899388  15.232494  -0.197589   0.572533  -0.073220 
Mo   0.064724  19.147833  16.827030   0.413618   0.183723  -0.721199 
Mo   2.859979  20.813825  16.729497  -0.598909   0.068458   0.337456 
S    1.980352  19.192469  18.355092  -0.258021   0.134518   0.094988 
S    4.689627  20.746630  18.351940   0.024772   0.001680  -0.049511 
S    4.701776  20.824410  15.160440  -0.176025  -0.138081  -0.094097 
S    1.909223  19.166611  15.161835  -0.127209   0.212192   0.406391 
Mo   5.593278  19.155963  16.722229  -0.111057   0.135683  -0.226293 
Mo   8.376563  20.790048  16.677719  -0.335882  -0.447406   0.541661 
S    7.481849  19.152437  18.278763   0.107136   0.100357  -0.306981 
S   10.300068  20.745325  18.266776  -0.457108  -0.496136  -0.442765 
S   10.173462  20.846030  15.035625   0.220134  -0.440674   0.095928 
S    7.358855  19.211764  15.040722   0.470551  -0.012319   0.546877 
Mo  11.172242  19.179071  16.569306   0.037535   0.462567  -0.407569 
Mo  13.989965  20.748495  16.586734  -0.034248  -0.033455   0.063719 
S   13.038027  19.160317  18.153280   0.019262  -0.218508  -0.286763 
S   15.838796  20.723853  18.230252  -0.349669   0.395641  -0.217741 
S   15.859856  20.774234  14.985979   0.066868  -0.066963   0.417178 
S   13.042103  19.231863  14.910834  -0.314618  -0.147979   0.371677 
Mo  16.791741  19.184283  16.634930  -0.654182  -0.051264  -0.815234 
Mo  19.534111  20.823732  16.726488   0.298072   0.309911  -0.106085 
S   18.547682  19.282248  18.273547   0.362987  -0.800556   0.382099 
S   21.390486  20.879256  18.415749  -0.733213  -0.525079  -0.095005 
S   21.435784  20.832920  15.213223   0.021024  -0.085616   0.233153 
S   18.678153  19.191186  15.055773   0.083229  -0.116480   0.743693 
Mo  22.273440  19.196506  16.864932  -0.079739   0.445323   0.418380 
Mo  24.999084  20.859778  16.889937   0.957070  -0.709084   0.154991 
S   24.180357  19.214987  18.448917  -0.577268  -0.515340  -0.047102 
S   26.965075  20.779894  18.412938  -0.405854   0.096654   0.237172 
S   26.809011  20.816038  15.290019   0.637462  -0.403809  -0.527987 
S   24.064250  19.240868  15.284137   0.458921   0.072041  -0.431397 
Mo  27.870531  19.198804  16.825085  -0.517351  -0.465278  -0.718064 
Mo  30.666257  20.819546  16.791512  -0.335376  -0.335243   0.588042 
S   29.721407  19.170112  18.378627   0.077433   0.269246   0.335831 
S   32.496751  20.793977  18.432020  -0.173259   0.116437  -0.062104 
S   32.487574  20.729284  15.219273   0.232116   0.545627   0.055997 
S   29.776576  19.184554  15.226001  -0.591001  -0.308348   0.233427 
Mo   0.034796  22.366776  16.787253   0.236597   0.226624  -0.583659 
Mo   2.817458  24.031185  16.787090   0.056044  -0.034974  -0.418063 
S    1.912364  22.437865  18.356525  -0.010414  -0.605445  -0.022081 
S    4.626289  23.996813  18.395565   0.316366  -0.257981   0.173867 
S    4.679486  24.037401  15.180443  -0.037176  -0.201840   0.337495 
S    1.873496  22.449072  15.158538   0.173799  -0.308930   0.343343 
Mo   5.589980  22.390340  16.789728  -0.023510   0.126299  -0.100673 
Mo   8.371066  23.901390  16.708399   0.099617   0.296340   1.171402 
S    7.423843  22.310605  18.406042   0.424272   0.182584  -0.931959 
S   10.205005  23.884839  18.342117   0.488625   0.042089  -0.571749 
S   10.220753  23.925486  15.144244  -0.016525   0.443084  -0.436858 
S    7.375199  22.349202  15.110105   0.057720   0.369766   0.166615 
Mo  11.164535  22.338650  16.671897  -0.337051   0.149238   0.620551 
Mo  13.988162  23.962680  16.670059  -0.213314  -0.685606   0.175656 
S   13.022502  22.272059  18.218188   0.588484   0.426216   0.265038 
S   15.877739  23.985672  18.221936  -0.259927  -0.295739   0.142149 
S   15.803485  23.946500  15.066971   0.534626   0.559142  -0.017626 
S   12.974162  22.380027  15.107312   0.578199   0.194018  -0.756556 
Mo  16.771009  22.356178  16.632201  -0.317729   0.090462   0.011781 
Mo  19.477481  24.010576  16.737747   0.749645  -0.336896  -0.638061 
S   18.505751  22.386626  18.322085   0.412850   0.158879  -0.293893 
S   21.259050  23.980271  18.363868   0.435423   0.630435   0.217851 
S   21.473038  23.981257  15.156117  -0.802638   0.330734   0.389006 
S   18.659552  22.404172  15.071316  -0.191807   0.001000   0.340970 
Mo  22.307113  22.458351  16.835861  -0.223812  -0.843282  -0.482756 
Mo  25.068397  23.982402  16.869203   0.989489   0.345033  -0.197571 
S   24.067854  22.447544  18.492688   0.360379   0.025273   0.098574 
S   26.908986  23.955873  18.412542   0.700817  -0.237354   0.272687 
S   26.961097  23.983314  15.222869  -0.190293  -0.109676   0.559741 
S   24.182135  22.442087  15.291738  -0.457005  -0.181111  -0.778393 
Mo  27.900434  22.352250  16.804788  -1.329714   0.785363   0.535151 
Mo  30.552748  24.067395  16.826783   1.273098  -0.607364   0.370487 
S   29.689039  22.363954  18.425736   0.449736   0.393120  -0.111760 
S   32.457811  24.004712  18.393719  -0.206370   0.102652  -0.019443 
S   32.446253  24.051916  15.199241  -0.261367  -0.472058   0.398706 
S   29.694726  22.452351  15.235217   0.375017  -0.436157  -0.402541 
