288
Lattice="33.330871 0.034922 0.030859 0.026872 25.656884 -0.000664 0.027083 9e-05 30.554606 " PBC="1 1 1" Properties="species:S:1:pos:R:3:force:R:3" Energy=" -5.287075"
Mo   0.082149  -0.061778  16.868449  -0.213224  -0.544462  -0.640464 
Mo   2.915082   1.506067  16.745584  -0.413868   0.755243  -0.095079 
S    2.012999  -0.061042  18.310105  -0.415118   0.504021   1.458945 
S    4.752373   1.519869  18.333571   0.142040   0.728091   0.053561 
S    4.741953   1.550327  15.160715  -0.197672  -0.319081  -0.486055 
S    1.930604  -0.083148  15.228380  -0.246115  -0.099976  -0.465991 
Mo   5.654476  -0.064043  16.768333  -0.505614  -0.368469  -0.580862 
Mo   8.366188   1.549961  16.715331   0.272366  -0.841101  -0.237630 
S    7.515085  -0.128680  18.307637  -0.050463   0.621951   0.297511 
S   10.285615   1.539283  18.288209  -0.662334   0.768692   0.113719 
S   10.191699   1.561422  15.116146   0.356171   0.084939   0.128864 
S    7.384843  -0.129575  15.105739   0.820615   0.303112   0.226643 
Mo  11.116217  -0.045096  16.726841   0.359261  -0.268899  -0.667527 
Mo  13.910837   1.604872  16.681687   0.605546  -0.001274   0.534319 
S   12.976283   0.016234  18.264324   0.169280  -0.235827   0.551686 
S   15.763573   1.585612  18.359470  -0.446832  -0.635251  -0.176194 
S   15.816429   1.522133  15.128580  -0.128268   0.195089   0.442027 
S   12.989004  -0.019658  15.188136  -0.038355  -0.218882  -0.910242 
Mo  16.650559  -0.092731  16.786600   0.150425   0.242521  -0.612998 
Mo  19.482159   1.534334  16.724833   0.419662  -0.244938   1.042366 
S   18.420460  -0.062882  18.397531   0.845979   0.387026  -0.188285 
S   21.312735   1.556699  18.393991  -0.283011  -0.313833  -0.114667 
S   21.432106   1.528509  15.189263  -0.601156  -0.339192  -0.122681 
S   18.576262  -0.090462  15.173402  -0.588213  -0.049900   0.097647 
Mo  22.217840  -0.073113  16.840056   0.523272  -0.649091   0.404022 
Mo  25.008049   1.523087  16.879693   0.547602  -0.115576  -0.356803 
S   24.076025  -0.062554  18.464259  -0.176764  -0.186831   0.181056 
S   26.861622   1.567340  18.465111  -0.131992   0.018036   0.271307 
S   26.804711   1.487022  15.247480   0.420320   0.596792   0.451864 
S   24.145207  -0.133383  15.314146  -0.461744   0.076660  -0.183407 
Mo  27.718460  -0.073204  16.900306   1.222072   0.881101  -0.514047 
Mo  30.620499   1.546815  16.800871  -0.486640   0.479137  -0.082458 
S   29.607537   0.050746  18.401839   0.378149  -0.752197   0.364279 
S   32.434848   1.509577  18.491894   0.278718   0.586540  -0.461044 
S   32.523426   1.553639  15.268461  -0.477479  -0.379876  -0.370939 
S   29.583781  -0.066198  15.226778   0.212932  -0.052084   0.694985 
Mo   0.104280   3.066888  16.796035  -0.539380   0.756631   0.783019 
Mo   2.869278   4.751533  16.762072  -1.169989  -0.325469   0.032316 
S    1.975714   3.072486  18.351791   0.045696   0.417208   0.060777 
S    4.669836   4.721546  18.330658   0.511756   0.038611   0.284389 
S    4.675993   4.754710  15.147668  -0.100341   0.427756  -0.603816 
S    1.884009   3.103176  15.187761   0.696825   0.131508  -0.233201 
Mo   5.623742   3.194228  16.679882   0.464270  -0.848575   1.418212 
Mo   8.455647   4.724150  16.701597  -0.445568   0.426118   0.012510 
S    7.524516   3.149232  18.293788  -0.553902   0.087613   0.086909 
S   10.302178   4.804198  18.303134  -0.413151  -0.431956   0.073422 
S   10.279605   4.798778  15.051924  -0.283045  -0.234181   0.230286 
S    7.447707   3.110432  15.091531   0.411517   0.413202   0.126101 
Mo  11.199060   3.224210  16.683576  -0.687264  -0.970781  -0.236751 
Mo  13.948638   4.734384  16.734234  -0.333992   0.600363  -0.272032 
S   12.976875   3.185379  18.301891   0.364528  -0.166432   0.290446 
S   15.778984   4.743700  18.346032   0.240410  -0.064453  -0.025116 
S   15.799496   4.722973  15.185633   0.326029  -0.248021  -0.194026 
S   13.011968   3.208834  15.059148   0.248035  -0.125292   0.244338 
Mo  16.739688   3.096201  16.795311   0.199607   0.803788  -0.735540 
Mo  19.476781   4.712900  16.713118   0.923261   0.103200   0.349857 
S   18.652806   3.147371  18.365427  -0.748623  -0.301797  -0.211800 
S   21.336272   4.695775  18.339966   0.102944   0.232745  -0.149871 
S   21.393530   4.650951  15.171955   0.047342   0.538800   0.132842 
S   18.595318   3.124915  15.151377  -0.546720  -0.255779  -0.302142 
Mo  22.312700   3.078802  16.806923  -0.576629   0.864789  -0.193474 
Mo  25.099264   4.757745  16.864111  -0.852628   0.200144   0.245966 
S   24.098411   3.096949  18.415429   0.214207   0.660899   0.531235 
S   26.921143   4.777594  18.487846   0.211993   0.085224  -0.303426 
S   26.926447   4.826631  15.307554   0.205127  -0.315139  -0.257340 
S   24.176954   3.123608  15.257203   0.098448   0.135063  -0.110534 
Mo  27.813131   3.152894  16.865933  -0.346100  -0.248373  -0.233114 
Mo  30.602979   4.748887  16.845113   0.189579  -0.002968   0.204245 
S   29.687687   3.117781  18.427316   0.104361   0.148197  -0.108036 
S   32.512232   4.739919  18.374891  -0.160092   0.142471   0.365292 
S   32.488985   4.793221  15.294157  -0.185963  -0.288786  -0.348045 
S   29.601756   3.183263  15.236852   0.548812  -0.362334   0.076854 
Mo   0.047494   6.409642  16.804304   0.444777  -0.999003   0.717384 
Mo   2.840482   7.978993  16.762172  -0.579222  -0.264197   0.121193 
S    1.938569   6.371920  18.393514  -0.162292  -0.165716  -0.432677 
S    4.641034   7.850471  18.379852   0.536375   0.769694  -0.310607 
S    4.652648   8.025711  15.159816   0.499163  -0.616969   0.291025 
S    1.828745   6.332369  15.190499   0.728426   0.363081   0.022240 
Mo   5.606315   6.310198  16.754457   0.269324   0.904137   0.003973 
Mo   8.373256   7.968852  16.745472   0.211391  -0.423010   1.076874 
S    7.520672   6.313642  18.361859  -0.393423  -0.012331  -0.632894 
S   10.201367   7.958993  18.382062   0.430332  -0.129268  -0.871636 
S   10.213852   7.998695  15.128060   0.062993   0.207565   0.156913 
S    7.481079   6.363411  15.182290  -0.221934  -0.233998  -0.400183 
Mo  11.143708   6.359217  16.683897   0.314040   0.918511   0.588522 
Mo  13.988366   7.972878  16.721623  -0.530645  -0.725303   0.775147 
S   13.002692   6.370844  18.291527   0.109257  -0.059939   0.015996 
S   15.776321   7.898669  18.415319   0.374590   0.406700  -0.996738 
S   15.821364   7.907254  15.150201   0.053403   0.482122  -0.207202 
S   13.009560   6.353068  15.129132   0.444225   0.140136   0.021407 
Mo  16.722920   6.342932  16.742575   0.205598  -0.149217   0.855456 
Mo  19.549509   7.917442  16.710785  -0.494606  -0.271470   0.468505 
S   18.642331   6.325879  18.314380  -0.650842   0.074407   0.029118 
S   21.366847   7.863751  18.336319  -0.105947   0.526360   0.401221 
S   21.409724   7.950766  15.203677   0.310815  -0.005276  -0.524086 
S   18.543241   6.321813  15.139115   0.374527   0.191991  -0.278630 
Mo  22.326576   6.333036  16.769967  -0.077603  -0.598698   0.409901 
Mo  25.096282   7.950226  16.923326   0.446537   0.501867  -0.857038 
S   24.170563   6.380780  18.480463  -0.589847  -0.647098  -0.282409 
S   26.967792   8.003995  18.489971  -0.089776   0.110702   0.014528 
S   26.924193   7.990845  15.292312   0.169986   0.320909   0.292043 
S   24.195680   6.410514  15.262464   0.214932  -0.541258  -0.058623 
Mo  27.886556   6.417383  16.885973  -0.184777  -0.678938   0.247587 
Mo  30.628986   8.012498  16.857818  -0.069965  -0.446111  -0.059887 
S   29.734313   6.334718  18.490560   0.020978   0.424566  -0.371375 
S   32.448407   8.016999  18.447171   0.476680   0.271915  -0.088340 
S   32.522680   8.000927  15.226332  -0.747071   0.521745   0.144178 
S   29.723555   6.360609  15.276789  -0.164485   0.377183  -0.074007 
Mo   0.089966   9.602829  16.793897  -0.191598  -0.678059   0.096017 
Mo   2.833884  11.144172  16.762088   0.292308   0.620137  -0.116783 
S    1.928597   9.602022  18.384424   0.021602  -0.538396  -0.123769 
S    4.576125  11.136578  18.398861   0.856695  -0.125917   0.049615 
S    4.673904  11.151040  15.122398   0.376384   0.093431   0.963979 
S    1.950548   9.593768  15.152345  -0.607655  -0.277683   0.036935 
Mo   5.597651   9.570606  16.809023  -0.667198  -0.457607  -0.079891 
Mo   8.419908  11.130964  16.817888  -0.676477   0.335727  -0.614356 
S    7.424301   9.552329  18.386479   0.274432  -0.232252   0.084203 
S   10.236109  11.081295  18.405838   0.069506   0.371212   0.332866 
S   10.247560  11.227944  15.154504  -0.278961  -0.408492   0.432946 
S    7.432056   9.530087  15.237424   0.082854   0.758371  -0.621925 
Mo  11.150857   9.584234  16.765067   0.340758  -0.448316  -0.143686 
Mo  14.003008  11.154452  16.728722  -0.607980   0.134613   0.454459 
S   13.052054   9.579950  18.326882  -0.108206  -0.211542  -0.005079 
S   15.814939  11.078526  18.391501  -0.204846   0.099680   0.094830 
S   15.841509  11.154406  15.171685   0.165147   0.310823  -0.348184 
S   13.044958   9.558208  15.210635  -0.265840   0.252162  -0.916154 
Mo  16.729864   9.563014  16.743567   0.210215  -1.201995   0.444015 
Mo  19.594446  11.109784  16.834789  -0.289606   0.459959   0.687677 
S   18.593002   9.478221  18.308558   0.002328  -0.084853   0.521697 
S   21.381015  11.089790  18.521182  -0.086153  -0.148458  -0.219129 
S   21.462487  11.124546  15.252637  -0.268086   0.760275   0.293298 
S   18.647443   9.574502  15.192675  -0.248171   0.106212  -0.332137 
Mo  22.300847   9.552309  16.830665   1.184658  -0.287433   0.489351 
Mo  25.135843  11.171065  16.896812  -0.512606   0.824379  -0.820004 
S   24.195528   9.553886  18.463348  -0.625884   0.183441   0.132247 
S   26.919287  11.260847  18.497537   0.622657  -0.146808   0.105829 
S   26.967132  11.293964  15.289645   0.007227  -0.278411   0.067756 
S   24.269091   9.602047  15.280596  -0.588371  -0.431292   0.253463 
Mo  27.852625   9.655667  16.890761  -0.225300  -0.723513  -0.402919 
Mo  30.631323  11.180663  16.903724  -0.067442   0.404858  -0.511802 
S   29.658902   9.590682  18.475518   0.465232  -0.033011   0.182138 
S   32.456412  11.166479  18.470833   0.541991   0.106122   0.130930 
S   32.489845  11.268937  15.287941  -0.387748  -0.405296  -0.341195 
S   29.672834   9.592922  15.268383   0.230090   0.316776   0.244306 
Mo   0.085951  12.757149  16.845566  -0.115779   0.656845   0.082250 
Mo   2.888838  14.371748  16.851929  -0.780561   0.797155  -0.504836 
S    1.937203  12.782608  18.345682   0.187853  -0.451803   1.002879 
S    4.676324  14.310780  18.445277   0.488383  -0.200587   0.421643 
S    4.697374  14.377316  15.246505   0.362450  -0.233462   0.281504 
S    1.942682  12.829126  15.255452  -0.208032  -0.223181  -0.499474 
Mo   5.621939  12.712237  16.832848  -0.521355   0.144709  -0.129248 
Mo   8.319250  14.398997  16.894358   0.965141  -1.074940   0.277097 
S    7.501314  12.681793  18.462789  -0.520721   0.216804  -0.299000 
S   10.211258  14.368857  18.475073  -0.100069  -0.148433   0.032577 
S   10.195353  14.398180  15.323417  -0.362176  -0.268735  -0.568604 
S    7.449193  12.784541  15.245120   0.302841  -0.128843   0.306437 
Mo  11.084252  12.745229  16.853608   0.803005  -0.004959  -0.558417 
Mo  13.897117  14.357804  16.803070   0.647090  -0.525114   0.065075 
S   12.996395  12.679272  18.323991   0.188626   0.355666   0.607684 
S   15.741958  14.255234  18.419869  -0.038122   0.510790  -0.064298 
S   15.827582  14.359911  15.263941  -0.232763  -0.370503   0.207611 
S   12.961052  12.777082  15.186342  -0.061103  -0.015439   0.288977 
Mo  16.747753  12.681940  16.866838   0.248993   0.738253  -0.836093 
Mo  19.500511  14.367762  16.977936  -0.108617  -0.182902  -0.503036 
S   18.576823  12.703715  18.502314   0.198135  -0.431166  -0.295663 
S   21.353238  14.350755  18.563615   0.077139   0.274218  -0.018268 
S   21.390175  14.361029  15.394881  -0.451649  -0.069511   0.014323 
S   18.701642  12.731362  15.332929  -0.558910   0.445006  -0.229757 
Mo  22.292725  12.724889  16.992965   0.260715   0.288162  -1.081194 
Mo  25.118681  14.420778  16.900337  -0.213679  -0.856936  -0.131831 
S   24.250122  12.764844  18.454935  -0.496546   0.195386   0.665035 
S   26.993809  14.422699  18.508599  -0.268588   0.064557   0.002630 
S   27.000808  14.415985  15.314766  -0.348785   0.106187  -0.100346 
S   24.070748  12.804364  15.289873   0.778937  -0.075025   0.834748 
Mo  27.934034  12.842878  16.907047  -0.732042  -0.132760   0.293919 
Mo  30.668633  14.420025  16.914719   0.607619   0.251949   0.195199 
S   29.767197  12.821462  18.518910  -0.066902  -0.083756  -0.029136 
S   32.556368  14.347970  18.543590  -0.561758   0.508171  -0.487412 
S   32.547365  14.434591  15.304152  -0.570760  -0.018194   0.159487 
S   29.767163  12.851785  15.335341  -0.074988  -0.307508  -0.423364 
Mo   0.035412  16.010484  16.907490   0.831398  -0.529753  -0.020975 
Mo   2.880202  17.586622  16.857132  -0.244439   0.376452   0.551756 
S    1.931106  15.959406  18.472934   0.125727   0.178249  -0.246269 
S    4.675398  17.590388  18.483582   0.490394  -0.083174  -0.126638 
S    4.752086  17.552701  15.303900  -0.200885  -0.125626  -0.135518 
S    1.898055  16.044268  15.297459   0.081147  -0.410193  -0.056462 
Mo   5.628966  15.916249  16.913948  -0.176108   0.926029  -0.015811 
Mo   8.402490  17.523063  16.882824   0.172678   0.274523   0.671124 
S    7.444979  15.938636  18.569871   0.054889   0.282014  -0.673199 
S   10.305908  17.656740  18.478942  -0.621981  -1.316514   0.042172 
S   10.289700  17.577500  15.269268  -0.957073  -1.023909  -0.348923 
S    7.439387  15.955594  15.297072   0.037062   0.000303  -0.215868 
Mo  11.148066  15.935921  16.876612   0.632372   1.053582  -0.119412 
Mo  13.975888  17.567016  16.797650  -0.511605  -0.534748   0.087648 
S   13.014604  15.949080  18.431158   0.309312   0.108792  -0.171847 
S   15.774850  17.599839  18.465098  -0.121903   0.059125  -0.359798 
S   15.807126  17.506544  15.172260  -0.100297   0.238142   0.287542 
S   13.046580  15.932469  15.194674  -0.594162   0.276826   0.434340 
Mo  16.654002  15.981149  16.865744   0.868285  -0.747006   0.462375 
Mo  19.483614  17.566288  16.906526  -0.833146   0.145190  -0.003704 
S   18.460779  15.951696  18.553410   0.386459   0.283295  -0.707700 
S   21.323730  17.654845  18.494495  -0.064055  -0.361036   0.350833 
S   21.345832  17.607744  15.341522  -0.053868  -0.098540  -0.224210 
S   18.550532  15.919134  15.308311   0.327542   0.206508   0.491613 
Mo  22.237131  16.002461  16.946536   0.970009  -0.365108   0.336570 
Mo  25.053611  17.565490  16.832190   0.078976   0.351794   0.144407 
S   24.151944  15.995346  18.510269  -0.076723  -0.027400  -0.277916 
S   26.839185  17.656303  18.470428   0.667335  -0.381608  -0.137526 
S   26.947186  17.638451  15.217375  -0.113483  -0.368457   0.797850 
S   24.090974  15.944312  15.343601  -0.066250   0.085231  -0.616000 
Mo  27.863483  16.026892  16.912526   0.216770   0.752549  -0.395927 
Mo  30.675085  17.661614  16.906287  -0.646167  -0.040158  -0.318359 
S   29.741081  16.059351  18.487879  -0.190397  -0.072469   0.090841 
S   32.471320  17.634159  18.551968   0.066465  -0.062530  -0.069052 
S   32.479144  17.642320  15.305158   0.133531  -0.286128  -0.097206 
S   29.737404  16.053781  15.315267  -0.038851  -0.075781   0.271805 
Mo   0.118328  19.108251  16.887675  -0.027685   1.434028  -0.681731 
Mo   2.825337  20.836731  16.904010   0.150545  -0.236755  -0.166113 
S    1.945957  19.194365  18.483188   0.154469  -0.204029  -0.041640 
S    4.721729  20.848383  18.406783   0.020877  -0.193456   0.367444 
S    4.674364  20.749024  15.275096  -0.059916   0.005907  -0.025942 
S    1.983472  19.212160  15.260668  -0.261751  -0.239208   0.444487 
Mo   5.654442  19.169904  16.863417  -0.223174   0.022388   0.547601 
Mo   8.391731  20.758465  16.820876   0.504603  -0.242024  -0.392983 
S    7.522915  19.185465  18.481418  -0.342469  -0.147710  -0.400290 
S   10.278410  20.760493  18.377478   0.016807   0.240374  -0.146173 
S   10.294592  20.728173  15.195710  -0.500351   0.033817   0.348789 
S    7.484391  19.079253  15.266103   0.004301   0.441193   0.016258 
Mo  11.161552  19.092443  16.815185   0.945504   1.920757   0.014840 
Mo  13.874872  20.794707  16.753374   0.527449  -0.716018  -0.210405 
S   13.052412  19.182802  18.371545  -0.276393  -0.142317  -0.020895 
S   15.654565  20.832547  18.385046   0.563495  -0.570741  -0.276093 
S   15.755099  20.768177  15.158077  -0.138480  -0.171916   0.269828 
S   12.956120  19.056256  15.142180   0.427509   0.620318   0.599943 
Mo  16.636732  19.155547  16.777333   0.527498   0.609917   0.695385 
Mo  19.477003  20.785039  16.819035  -0.206712  -0.275154   0.397492 
S   18.495171  19.233336  18.419751  -0.196316  -0.423122  -0.165583 
S   21.272832  20.772044  18.493489   0.115503   0.480423  -0.265720 
S   21.332969  20.808532  15.249414   0.175018  -0.223416   0.124289 
S   18.552561  19.167723  15.265866   0.144554  -0.379063  -0.052615 
Mo  22.265532  19.232685  16.909780  -0.511658  -0.609077  -0.698167 
Mo  25.016369  20.765691  16.937607  -0.073737   0.496963  -0.848932 
S   24.126288  19.130884  18.414671   0.013425   0.108892   1.117254 
S   26.905982  20.821823  18.459696   0.120302   0.101994   0.223104 
S   26.823883  20.814377  15.304294   0.470053   0.141538   0.114629 
S   24.088941  19.184126  15.293560   0.236746   0.119748  -0.112181 
Mo  27.840014  19.221603  16.876683  -0.210301   0.157324  -0.490375 
Mo  30.679005  20.843014  16.899762  -0.371718  -0.066761  -0.449936 
S   29.705785  19.291641  18.428929  -0.042172  -0.419024   0.760959 
S   32.539781  20.811183  18.425190  -0.063571   0.003881   0.709333 
S   32.555104  20.808933  15.266075  -0.240484  -0.385495   0.514387 
S   29.717882  19.288239  15.281796   0.053153  -0.394514   0.298405 
Mo   0.088250  22.395642  16.830310   0.130456   0.550951   0.654735 
Mo   2.901407  24.013220  16.813306   0.133943  -0.832693  -0.273763 
S    1.904378  22.557555  18.497505   0.255788  -0.870066  -0.548004 
S    4.809530  24.043956  18.418275  -0.607375  -0.187410  -0.266911 
S    4.692835  23.940734  15.174690   0.209459   0.585866  -0.074602 
S    1.923259  22.380344  15.254273   0.164610   0.271504   0.097289 
Mo   5.606291  22.414470  16.785927   1.246425  -0.516739   0.207666 
Mo   8.404686  23.962984  16.711603   0.526052  -0.454693  -0.059142 
S    7.495052  22.386457  18.405623  -0.072257   0.231445  -0.652057 
S   10.271163  23.981423  18.323911  -0.262876   0.083499  -0.020460 
S   10.299491  23.953149  15.110272  -0.413347   0.100341   0.369643 
S    7.492899  22.317018  15.155073  -0.383161  -0.040637   0.388952 
Mo  11.209419  22.389741  16.763088  -0.002862  -0.191701  -0.261018 
Mo  13.958000  24.005569  16.735908  -0.069664   0.294637   0.325085 
S   13.047770  22.451048  18.365513  -0.312826  -0.386127  -0.114382 
S   15.733272  23.954615  18.396366   0.140553   0.439948  -0.192166 
S   15.806964  23.969318  15.144547   0.042124   0.061929   0.147099 
S   13.105634  22.397936  15.176457  -1.008904   0.063346  -0.627569 
Mo  16.643583  22.373237  16.793060   0.567665  -0.076058  -0.594437 
Mo  19.422195  24.006727  16.830365   0.752935  -0.648171   0.266682 
S   18.480193  22.346197  18.379521   0.075054   0.389342   0.246212 
S   21.295685  23.946559  18.469613  -0.443857   0.892189  -0.269484 
S   21.324630  23.956638  15.271333  -0.261805   0.552013  -0.306284 
S   18.582866  22.354026  15.229177  -0.515530   0.323312  -0.064130 
Mo  22.197678  22.414316  16.857804   0.428150  -0.939719   0.532444 
Mo  25.067923  23.954225  16.929378  -0.262167   0.420049  -0.100111 
S   24.021626  22.413618  18.464655   0.285504  -0.397763   0.544339 
S   26.942751  23.989712  18.539347  -0.431346  -0.079175  -0.202031 
S   26.877183  24.052777  15.309242  -0.069900  -0.748434  -0.518847 
S   24.096414  22.359208  15.332848   0.173119   0.192629  -0.154295 
Mo  27.831748  22.454863  16.864252  -0.022703  -1.083837   0.283304 
Mo  30.607159  24.032540  16.885940  -0.378766  -0.503145  -0.096618 
S   29.641769  22.383251  18.529260   0.590786   0.642841  -0.659404 
S   32.443951  24.037576  18.514326   0.270999  -0.144278  -0.576060 
S   32.492738  24.016876  15.297569  -0.282357   0.174807   0.119637 
S   29.721964  22.340000  15.303984  -0.182328   0.962963  -0.061194 
