288
Lattice="33.33502 0.035094 0.030866 0.027004 25.649583 -0.000664 0.02709 9e-05 30.413096 " PBC="1 1 1" Properties="species:S:1:pos:R:3:force:R:3" Energy=" -5.286331"
Mo   0.080464  -0.022522  16.777951  -0.701281  -0.112290   0.334241 
Mo   2.874419   1.537557  16.802392  -0.084291   0.962603   0.562857 
S    1.909694  -0.052703  18.338711   0.162868   0.047045   0.905084 
S    4.709794   1.556333  18.435921  -0.182866  -0.350345  -0.227864 
S    4.709543   1.536259  15.244666   0.067339   0.111115  -0.273992 
S    1.952380  -0.058599  15.279294  -0.077578   0.134204  -1.258148 
Mo   5.622720  -0.091297  16.816428   0.408175   0.697369   0.468900 
Mo   8.380071   1.516762  16.819695   0.299242   1.189827  -0.121529 
S    7.537978  -0.071381  18.419215  -0.788795   0.088982   0.252176 
S   10.237888   1.532828  18.390805   0.430476  -0.242411   0.021860 
S   10.255433   1.567660  15.179136  -0.305689   0.121130   0.274975 
S    7.467511  -0.033742  15.239232  -0.042217  -0.139928  -0.447290 
Mo  11.192663  -0.041203  16.721708  -0.262625  -0.021244   0.949012 
Mo  14.032044   1.520503  16.744570  -0.956827  -0.259080  -0.177472 
S   13.085665  -0.135372  18.245004  -0.045627   0.226207   0.645859 
S   15.789390   1.420213  18.381765   1.049108   0.502485  -0.478763 
S   15.879504   1.485955  15.172226  -0.022725   0.857965  -0.145956 
S   12.976831  -0.063808  15.147385   0.929450   0.412127  -0.435389 
Mo  16.803684  -0.102440  16.684649  -0.447603  -0.360100   0.662992 
Mo  19.577578   1.534872  16.729857  -0.643332   0.237908   0.777452 
S   18.673404  -0.075518  18.331107  -0.408218  -0.130249  -0.550650 
S   21.401199   1.566537  18.415322  -0.185849  -0.116325  -0.553907 
S   21.397378   1.622788  15.187099   0.555510  -0.729257  -0.105173 
S   18.603971  -0.078181  15.088051   0.723279   0.227636   0.201279 
Mo  22.342053  -0.032061  16.795501  -0.028645   0.067653   0.422866 
Mo  25.074918   1.538077  16.895258  -0.314740   0.480533  -0.529689 
S   24.205409  -0.075828  18.454383  -0.717020  -0.239810  -0.206919 
S   26.950992   1.611477  18.442461   0.221261  -0.273254  -0.134486 
S   26.837657   1.588918  15.290985   0.812882   0.087544  -0.414886 
S   24.181158  -0.068782  15.236206   0.097419   0.532356  -0.104714 
Mo  27.869129  -0.025493  16.809097  -0.358622   0.590494   0.224705 
Mo  30.615649   1.664089  16.799181   0.417280  -1.156314  -0.253715 
S   29.762975  -0.070920  18.351476  -0.181494   0.243025   0.031010 
S   32.446068   1.658110  18.417786   0.166378  -0.493594  -0.124357 
S   32.512834   1.552937  15.165418  -0.392335   0.675941   0.500567 
S   29.687380  -0.010038  15.225578   0.375590   0.124981  -0.108803 
Mo   0.059213   3.145894  16.777379   0.585616   0.419121  -0.238072 
Mo   2.942813   4.804202  16.805253  -1.116294   0.173999   0.549600 
S    1.908422   3.222785  18.353127   0.352659  -0.373442   0.236188 
S    4.735966   4.809596  18.444792  -0.199906  -0.210921   0.125650 
S    4.768810   4.803929  15.196610  -0.327791  -0.527626  -0.052511 
S    2.003984   3.217909  15.220341  -0.385418  -0.336837  -0.020709 
Mo   5.593990   3.174301  16.844449   0.502909  -0.106839   0.007987 
Mo   8.411208   4.698735  16.880282   0.444287   0.838707  -1.060952 
S    7.464976   3.169520  18.448245  -0.103337  -0.619713  -0.022595 
S   10.392952   4.729394  18.379243  -0.791382   0.179567   0.621093 
S   10.216152   4.741144  15.254312   0.404965  -0.430048  -0.312189 
S    7.419190   3.152981  15.248987   0.448957  -0.154554   0.060269 
Mo  11.222675   3.112661  16.832164  -0.159282   0.039123  -1.743802 
Mo  14.011235   4.670438  16.771008  -0.473870   0.900209   0.076600 
S   13.020246   3.099204  18.369959   0.980890  -0.266933   0.324784 
S   15.790870   4.722418  18.383191   0.473947   0.194618  -0.133757 
S   15.810470   4.723507  15.148356   0.368573  -0.151941   0.092516 
S   13.112494   3.111143  15.150014  -0.656890  -0.052324   0.279852 
Mo  16.782093   3.160267  16.797133  -0.675004  -1.246279  -0.049442 
Mo  19.483200   4.728797  16.804396   0.697437   1.051933  -0.305607 
S   18.646128   3.150542  18.364651  -0.385616  -0.710525   0.384681 
S   21.369216   4.763805  18.339082  -0.062196   0.027910   0.412581 
S   21.320683   4.712297  15.160218   0.505308   0.361234   0.649339 
S   18.621876   3.172039  15.218604  -0.243024  -0.288803  -0.628831 
Mo  22.354093   3.157856  16.800464  -0.887124  -0.186384   0.456806 
Mo  25.026730   4.744918  16.855000   0.808032   0.494841  -0.216594 
S   24.151804   3.101752  18.517198  -0.027310   0.547828  -0.724039 
S   26.979068   4.868466  18.402868  -0.706521  -0.197975   0.078986 
S   26.916798   4.805938  15.247574  -0.339642   0.116230  -0.193569 
S   24.157453   3.137895  15.226144   0.362863  -0.213953   0.282722 
Mo  27.832213   3.249441  16.831577   0.382892  -0.950067  -0.462891 
Mo  30.564931   4.832326  16.781972   0.715911  -0.041137   0.678002 
S   29.679464   3.260918  18.386142   0.101564  -0.273548   0.384900 
S   32.487585   4.820693  18.386850  -0.331484   0.026066  -0.143873 
S   32.430738   4.790696  15.306538   0.579867   0.385862  -1.216812 
S   29.712003   3.226819  15.178319  -0.651098   0.040089   0.121116 
Mo   0.076932   6.424937  16.767172   0.340075  -0.724004   0.948391 
Mo   2.861466   8.050913  16.811294   0.541287  -0.171600   0.076256 
S    1.927649   6.454863  18.389129   0.207400  -0.298010  -0.107408 
S    4.780818   8.084857  18.341346  -0.277847  -0.611709   0.248276 
S    4.723816   7.945671  15.196792  -0.150378   0.081785  -0.084572 
S    1.979589   6.385648  15.258982  -0.169222   0.284359  -0.675049 
Mo   5.618254   6.344142  16.810643   1.131291   1.044876   0.221964 
Mo   8.481934   7.970822  16.757014   0.311387  -0.360039  -0.118274 
S    7.569296   6.397380  18.359642  -0.630043  -0.052413   0.506187 
S   10.373248   7.928503  18.338179  -0.376676   0.644514  -0.136763 
S   10.316341   7.922339  15.121582  -0.099498  -0.046547   0.270127 
S    7.493070   6.343683  15.218544   0.095537  -0.396429   0.362295 
Mo  11.233135   6.326628  16.764154   0.135841   0.362086  -0.231196 
Mo  13.957192   8.046859  16.731060  -0.002028  -0.762871   0.804806 
S   13.092271   6.335881  18.343000   0.087828   0.339668  -0.162683 
S   15.791223   7.952321  18.372571  -0.223485   0.044352  -0.407948 
S   15.760375   7.983299  15.107771   0.309620  -0.301070   0.034779 
S   13.111364   6.345462  15.224415  -0.268820  -0.194422  -0.488283 
Mo  16.690976   6.359077  16.725280  -0.180477  -0.137502   0.362831 
Mo  19.494918   7.935086  16.840584   0.281860   0.480676   0.352677 
S   18.453390   6.312522  18.391792   0.611822   0.286376  -0.087290 
S   21.390615   7.952018  18.402425  -0.492247  -0.135094   0.210099 
S   21.397337   8.001879  15.276686  -0.769220  -0.059747  -0.614668 
S   18.632595   6.392597  15.216403  -0.520287  -0.368376  -0.208895 
Mo  22.296279   6.359704  16.769905  -0.003031  -0.286276  -0.073094 
Mo  24.990048   7.935731  16.774740   0.345693   0.016160   0.841930 
S   24.078893   6.341118  18.442676   0.258352   0.159146  -0.532068 
S   26.901949   8.008946  18.406250  -0.207270  -0.365605  -0.261721 
S   26.786926   7.990165  15.196826   1.044744   0.023282   0.018455 
S   24.147810   6.334808  15.120918  -0.226930  -0.276428   0.890578 
Mo  27.877537   6.436051  16.774782  -1.031236   0.019602   0.723952 
Mo  30.660943   8.001980  16.839543   0.360171   0.311993   0.208521 
S   29.715891   6.378661  18.426614  -0.224249   0.418827  -0.189158 
S   32.536367   7.995967  18.496205  -0.401597   0.243557  -0.723238 
S   32.532236   8.047976  15.237367  -0.469814  -0.000943  -0.163482 
S   29.685114   6.472641  15.208185   0.355034  -0.061033  -0.286616 
Mo   0.075327   9.585793  16.828139   0.230471   0.456210   0.099709 
Mo   2.906411  11.229273  16.753983   0.033095  -0.114491   0.989533 
S    1.987303   9.694356  18.406897  -0.297088  -0.267120  -0.139465 
S    4.853065  11.244651  18.327115  -0.583760  -0.488233  -0.391658 
S    4.688869  11.140703  15.143234   0.462676   0.028258  -0.421671 
S    1.917050   9.632802  15.241451   0.035991  -0.284218  -0.518604 
Mo   5.732628   9.572204  16.699624  -0.214317   0.550306   0.178621 
Mo   8.452401  11.176807  16.686896   0.104801   0.493442  -0.331618 
S    7.574743   9.606188  18.300791  -0.050486  -0.206023   0.256101 
S   10.293962  11.296068  18.273581  -0.027145  -0.196307  -0.265341 
S   10.277907  11.260073  15.058917  -0.131112  -0.580867  -0.083885 
S    7.655588   9.545160  15.126708  -0.926636  -0.167378  -0.368919 
Mo  11.159398   9.629378  16.685955   0.277198  -0.239006  -0.065831 
Mo  13.992850  11.244134  16.678036  -0.640849   0.130306  -0.247535 
S   12.965633   9.735812  18.245709   0.472269  -0.582025   0.629733 
S   15.754943  11.143288  18.280019   0.424914   0.110530   0.438422 
S   15.854283  11.146003  15.071719  -0.215360  -0.370841   0.136987 
S   13.037353   9.646385  15.134981  -0.124192  -0.297911  -0.437413 
Mo  16.694904   9.516238  16.734008   0.301573   0.975162   0.170178 
Mo  19.507685  11.244604  16.817528  -0.355059  -0.026976  -0.315870 
S   18.512979   9.598089  18.382096   0.297746  -0.111804  -0.071838 
S   21.320409  11.252968  18.449970  -0.088396  -0.269855  -0.026615 
S   21.342446  11.208875  15.214468  -0.224182  -0.284081  -0.122987 
S   18.628514   9.599743  15.279414  -0.091230  -0.333091  -0.656997 
Mo  22.218140   9.623523  16.853185   0.605964  -0.281650   0.095865 
Mo  25.016029  11.167301  16.794035   0.522286  -0.232533  -0.028281 
S   24.131591   9.554671  18.394972  -0.206679   0.229003   0.045775 
S   26.920135  11.177493  18.337634   0.090479   0.192138   0.019676 
S   26.896727  11.123525  15.190975   0.169369   0.309721   0.441420 
S   24.015429   9.543371  15.209094   0.394084   0.447582   0.198745 
Mo  27.873476   9.535438  16.814697  -0.793546   1.018841  -0.670530 
Mo  30.628438  11.264910  16.852377   0.222980  -0.549673  -0.813809 
S   29.703740   9.601475  18.419976   0.163412   0.147938   0.070749 
S   32.520130  11.298161  18.373627  -0.165059  -0.224785   0.401414 
S   32.496141  11.188289  15.179840  -0.253350  -0.097044   0.537163 
S   29.728504   9.608126  15.236572   0.067515   0.074721   0.228436 
Mo   0.113508  12.775719  16.697027   0.064510   0.712919   0.796422 
Mo   2.920439  14.441368  16.743497  -0.878951  -0.811384  -0.355741 
S    1.993767  12.845222  18.353486  -0.269786  -0.159593  -0.367541 
S    4.772324  14.381810  18.285168   0.158627   0.399998   0.201342 
S    4.681987  14.434067  15.106009   0.514512  -0.006667  -0.271736 
S    2.000299  12.811135  15.176122  -0.182132   0.162773  -0.445355 
Mo   5.628708  12.799272  16.664934   0.836044   0.030442  -0.068641 
Mo   8.431898  14.368657  16.560363  -0.953134   0.138846   0.488228 
S    7.520799  12.750559  18.252214  -0.091100   0.788428  -0.417779 
S   10.247376  14.424656  18.147847   0.072748   0.244884   0.306911 
S   10.217774  14.376360  14.921429   0.418730   0.229738   0.272444 
S    7.448326  12.710891  15.028445   0.146857   0.126462   0.291385 
Mo  11.187585  12.864926  16.595345   0.540020  -0.522668   0.266723 
Mo  13.981117  14.448648  16.628415   0.224426  -0.098278  -0.185254 
S   13.024178  12.886815  18.246973   0.164195  -0.058652  -0.305385 
S   15.851444  14.453418  18.214572  -0.052665  -0.104841  -0.367649 
S   15.870638  14.359770  15.015940  -0.133424  -0.035228   0.586321 
S   13.093779  12.819733  15.061677  -0.182774   0.125774  -0.258553 
Mo  16.720390  12.707523  16.692223   0.493430   1.692668  -0.040413 
Mo  19.544842  14.451389  16.745564  -0.807125  -0.108724  -0.439422 
S   18.537957  12.849700  18.351611  -0.121905   0.101152  -0.210814 
S   21.323950  14.398920  18.357530   0.329182   0.178623   0.317544 
S   21.402631  14.370908  15.173275  -0.006962   0.239007   0.050717 
S   18.587499  12.899689  15.116425   0.359481  -1.041105   0.608680 
Mo  22.237197  12.768785  16.798524   1.127881   0.821559   0.592663 
Mo  25.138460  14.392315  16.727816  -1.007734  -0.015782   0.959926 
S   24.158791  12.806751  18.420591  -0.091095   0.076776  -0.805885 
S   26.947368  14.457684  18.354233   0.231211  -0.466056  -0.166963 
S   26.934615  14.396724  15.115826   0.495220   0.319756   0.305364 
S   24.104046  12.799914  15.243741   0.179714  -0.294931  -0.587479 
Mo  27.869137  12.823755  16.744504  -0.623854  -0.254415   0.647673 
Mo  30.607109  14.444341  16.769948   0.845820   0.040633  -0.025916 
S   29.707048  12.892766  18.403761  -0.360122  -0.299651   0.019869 
S   32.508544  14.442035  18.340936  -0.250311  -0.439334   0.058090 
S   32.477022  14.414331  15.184053   0.061129   0.080209  -0.079319 
S   29.707161  12.831471  15.221175   0.147344  -0.166852  -0.463394 
Mo   0.053553  16.011376  16.750402   0.797722  -0.386089  -0.010648 
Mo   2.859160  17.612081  16.760035  -0.239160  -0.739477   0.184618 
S    1.963977  15.924471  18.335844  -0.381250   0.833835   0.166102 
S    4.731990  17.588032  18.297780   0.122370   0.240371   0.422230 
S    4.671716  17.617379  15.133907   0.140645   0.216485  -0.185055 
S    1.922170  16.035063  15.166326   0.049854  -0.130517  -0.008149 
Mo   5.651870  16.040817  16.691794   0.020778  -0.760012  -0.725328 
Mo   8.461237  17.603632  16.587976  -0.779771   0.067204   0.245997 
S    7.506453  16.003057  18.192781   0.663240  -0.211068   0.065797 
S   10.291976  17.563024  18.204914  -0.034842   0.288264  -0.239702 
S   10.226309  17.607397  14.942217   0.472652   0.282880   0.210656 
S    7.505587  16.030410  15.003295  -0.466761  -0.194709   0.346198 
Mo  11.160689  16.013375  16.543459   0.557202  -0.081996  -0.017647 
Mo  14.028273  17.594732  16.532634  -1.183382   0.528314  -0.221805 
S   13.045049  16.099352  18.181024  -0.103782  -0.455907  -0.374236 
S   15.837080  17.601362  18.130455   0.247847   0.132143   0.133819 
S   15.893308  17.608784  14.982288   0.125870   0.119933  -0.313869 
S   13.032659  15.971635  14.947818   0.285393   0.152413   0.354141 
Mo  16.840682  16.021630  16.553594  -0.082950  -0.244908   0.831589 
Mo  19.622949  17.613215  16.725975  -0.426730   0.456890  -0.667407 
S   18.623431  16.073795  18.334785  -0.270008  -0.100621  -0.835267 
S   21.469730  17.628789  18.361525  -0.453394  -0.098164   0.145519 
S   21.533600  17.591481  15.175600  -0.489104   0.375420  -0.100727 
S   18.742239  16.041678  14.986541   0.040247  -0.003511   1.205819 
Mo  22.330239  15.995482  16.775429   0.020578  -0.661073  -0.024913 
Mo  25.115671  17.572733  16.839373   0.162632   0.221938  -1.004863 
S   24.158430  15.956742  18.334526   0.272950  -0.286744   0.603141 
S   26.941998  17.602800  18.446219   0.230404  -0.008046  -0.338908 
S   26.909713  17.637869  15.197919   0.396213  -0.091467   0.262146 
S   24.164140  16.008786  15.184197   0.308863  -0.134181  -0.049198 
Mo  27.891277  16.053702  16.773465  -0.536524  -0.349840  -0.398183 
Mo  30.642868  17.690471  16.770461  -0.076467  -0.700420  -0.583138 
S   29.749435  16.058394  18.341625  -0.215406   0.208167   0.298175 
S   32.500267  17.679638  18.350635  -0.337426  -0.584812   0.577985 
S   32.511569  17.598086  15.183331  -0.339408   0.588363  -0.201714 
S   29.732090  16.064341  15.156977  -0.101716   0.161355   0.150640 
Mo   0.074752  19.178776  16.757520   0.167043   0.092900  -0.040767 
Mo   2.801973  20.729970  16.807606   0.485494   0.563498   0.171319 
S    1.883132  19.101832  18.406278   0.227994   0.531974  -0.108446 
S    4.730722  20.750104  18.355151  -0.223015   0.001356   0.085477 
S    4.635684  20.835019  15.200242   0.182619  -0.271938  -0.204719 
S    1.910163  19.135985  15.169375   0.044825   0.635840  -0.084964 
Mo   5.640707  19.199776  16.719948  -0.061553  -0.216780  -0.270137 
Mo   8.435357  20.778970  16.724275  -0.500727   0.462867  -0.606658 
S    7.529338  19.126376  18.253280   0.076310   0.219263   0.159672 
S   10.336572  20.791341  18.232231  -0.177898  -0.260148   0.385045 
S   10.205740  20.840796  15.058607   0.412819   0.084791   0.255436 
S    7.418613  19.219033  15.031988   0.471256   0.202898   0.666301 
Mo  11.194884  19.193024  16.602636  -0.156356  -0.257817  -0.823947 
Mo  13.988387  20.786794  16.576276  -0.114080   0.323595  -0.631567 
S   13.032429  19.194762  18.145716   0.678435  -0.363155   0.022216 
S   15.857132  20.794514  18.139942  -0.299986  -0.083169   0.607671 
S   15.877566  20.861387  14.994820  -0.066880  -0.345727   0.025174 
S   13.014075  19.213068  14.929270   0.388665  -0.181587   0.580498 
Mo  16.790217  19.227817  16.583329   0.353026  -0.518501  -0.477806 
Mo  19.579122  20.812849  16.741854  -0.089891  -0.182570  -0.173079 
S   18.558574  19.215548  18.277502   0.389911  -0.216423  -0.256258 
S   21.455437  20.819285  18.351986  -0.461886  -0.197923   0.157799 
S   21.429276  20.819470  15.195752   0.525902  -0.225430  -0.125370 
S   18.728969  19.218926  15.018155   0.004260  -0.071148   1.127469 
Mo  22.417759  19.198967  16.787662  -0.658991   0.185470  -0.386726 
Mo  25.153876  20.760621  16.743069   0.072437   0.596316   0.652077 
S   24.269952  19.214918  18.356598  -0.428843  -0.176666   0.655561 
S   27.010140  20.817641  18.399353  -0.754155   0.033803   0.058491 
S   27.003443  20.819857  15.199638  -0.105273  -0.088167  -0.061580 
S   24.222208  19.124576  15.173124   0.144991   0.471991   0.053980 
Mo  27.868739  19.205951  16.829411   0.353062  -0.003699  -0.908287 
Mo  30.613915  20.782526  16.815222  -0.509277   0.555542  -0.006067 
S   29.687492  19.201189  18.429688   0.320450  -0.036477  -0.106274 
S   32.460268  20.850521  18.376312   0.360906  -0.262498   0.271936 
S   32.431504  20.792308  15.239543   0.540150   0.321635  -0.480445 
S   29.693334  19.308440  15.118367  -0.025123  -0.694194   0.828843 
Mo   0.089596  22.388804  16.758490   0.030675   0.081853   0.295140 
Mo   2.872992  23.971302  16.800480  -0.103621  -0.483450   0.221716 
S    1.924947  22.371033  18.426405  -0.069328  -0.021203  -0.576243 
S    4.707278  23.974383  18.384640   0.225858  -0.369126   0.226901 
S    4.706230  24.012106  15.185770   0.114855  -0.357778   0.182987 
S    1.930374  22.371930  15.204305   0.182158  -0.039090  -0.087124 
Mo   5.646951  22.369669  16.771814  -0.379474   0.853785   0.155841 
Mo   8.453626  24.041354  16.821784  -0.206598  -1.189027  -0.696910 
S    7.501801  22.387572  18.368937   0.277256  -0.270065  -0.127322 
S   10.346018  23.985680  18.328292   0.158485  -0.130608   0.192372 
S   10.263023  24.030603  15.180693  -0.203390   0.008230  -0.461414 
S    7.486375  22.448517  15.181454   0.218262  -0.186487   0.286277 
Mo  11.257618  22.407527  16.680011  -1.090521  -0.184031  -0.347807 
Mo  14.033561  23.964143  16.644405  -0.492352  -0.611421   0.024027 
S   13.083768  22.339443  18.227872   0.496336   0.157461   0.099734 
S   15.905192  23.926528  18.258508  -0.285434   0.199371  -0.216908 
S   15.800936  23.932637  14.993776   0.899500   0.623027   0.722775 
S   12.978453  22.423120  14.996819   0.779891  -0.104116   0.432063 
Mo  16.844448  22.390514  16.628810  -0.936438   0.432532  -0.601894 
Mo  19.615134  23.992264  16.693394   0.078997   0.182404   0.237516 
S   18.568743  22.423127  18.281801   0.875111  -0.100766   0.159318 
S   21.404102  23.971356  18.330869   0.231861   0.222468   0.228174 
S   21.586017  23.987182  15.167570  -0.908782   0.275668  -0.128921 
S   18.752490  22.421170  15.113905  -0.219999  -0.304726  -0.555060 
Mo  22.392283  22.399075  16.777258   0.248385  -0.180673   0.168030 
Mo  25.119669  24.003052  16.803622  -0.256415  -0.437435   0.248027 
S   24.210301  22.327128  18.429414   0.149200   0.279139  -0.783715 
S   26.909328  24.061329  18.357979   0.749226  -0.308115   0.795228 
S   26.967281  24.038037  15.210197  -0.054701  -0.019850  -0.133260 
S   24.253363  22.406855  15.189990  -0.157250  -0.171163  -0.087804 
Mo  27.861907  22.432106  16.811496   0.505281  -0.125644   0.062825 
Mo  30.676270  23.954289  16.745939   0.055795   0.827622   0.899962 
S   29.707159  22.352758  18.454416   0.119584   0.647766  -0.841868 
S   32.543292  24.032315  18.386650  -0.504287  -0.067627  -0.168375 
S   32.575570  24.064625  15.180947  -0.450627  -0.306226   0.113978 
S   29.685405  22.384086  15.194383   0.240615   0.077485   0.111949 
