288
Lattice="33.332853 0.035026 0.030869 0.026952 25.654125 -0.000664 0.027092 9e-05 30.469082 " PBC="1 1 1" Properties="species:S:1:pos:R:3:force:R:3" Energy=" -5.285254"
Mo   0.079468  -0.137643  16.900642   0.275890   0.133915   0.568036 
Mo   2.835570   1.524546  16.865907   0.155324  -0.409796  -0.140222 
S    1.947145  -0.082924  18.485585   0.111525  -0.311108  -0.173968 
S    4.724565   1.539323  18.422725   0.115850   0.061915  -0.385465 
S    4.596979   1.574425  15.179547   0.298525  -0.232823   0.402364 
S    1.933132  -0.093649  15.283944  -0.331506  -0.002442  -0.107333 
Mo   5.626576  -0.030118  16.754518  -1.233386  -0.324993  -0.365217 
Mo   8.374280   1.609957  16.673998  -0.410000  -0.650086  -0.221891 
S    7.507705  -0.047176  18.251466  -0.022884   0.046150   0.073278 
S   10.200063   1.574966  18.276605   0.325914   0.349552   0.029616 
S   10.212630   1.723313  15.106604   0.199065  -0.605066  -0.316089 
S    7.332281   0.008372  15.043452   0.599810   0.197026   0.123928 
Mo  11.094279   0.027323  16.656287   1.202305  -0.263715  -0.546523 
Mo  13.928219   1.635416  16.741713   0.470426  -0.150968   0.480876 
S   12.957427  -0.000778  18.290313  -0.181276   0.072799  -0.243936 
S   15.780585   1.613494  18.384443  -0.305647  -0.028154  -0.055162 
S   15.906555   1.592356  15.232655  -0.905468  -0.323096  -0.448266 
S   13.050178   0.077296  15.088308  -0.313734  -0.548257   0.592534 
Mo  16.719073  -0.028898  16.835394  -0.064233   0.312230  -0.503936 
Mo  19.503570   1.589869  16.878345   0.472816  -0.659143  -0.366942 
S   18.466206   0.016158  18.481735   0.556327  -0.289170  -0.065618 
S   21.332686   1.517275  18.491111   0.016035   0.638533  -0.054941 
S   21.383993   1.633780  15.258402  -0.342450  -0.386329   0.408091 
S   18.653111   0.013690  15.279184  -0.928598  -0.069465  -0.388045 
Mo  22.212665  -0.029331  16.859538   0.338119  -0.331464   0.210981 
Mo  24.998304   1.530786  16.927236  -0.142413   0.374512   0.098236 
S   24.062815  -0.120612  18.491476   0.019056   0.242300  -0.346172 
S   26.855368   1.551688  18.506914   0.108062  -0.005509   0.245772 
S   26.901439   1.561439  15.433533  -0.427567  -0.460925  -1.476620 
S   24.071905  -0.092209  15.271120   0.267115   0.623741   0.084893 
Mo  27.777503  -0.062195  16.934353   1.255577  -0.351954  -0.007988 
Mo  30.621976   1.505551  16.915821  -0.095124   0.635084   0.309655 
S   29.655842  -0.006883  18.591604  -0.340608   0.083944  -0.472365 
S   32.470509   1.439627  18.531717  -0.016281   0.521438  -0.252734 
S   32.473456   1.408519  15.314801  -0.122932   0.691215  -0.132068 
S   29.710848  -0.038994  15.306666  -0.644043  -0.209094   0.513859 
Mo   0.022495   3.037734  16.856135   0.078231   0.618892   0.304675 
Mo   2.806544   4.727422  16.858347  -0.344112  -0.845675   0.123906 
S    1.852132   3.058759  18.428442   0.337362   0.631902   0.350125 
S    4.659987   4.693832  18.459552   0.259588   0.340201  -0.625994 
S    4.571672   4.733085  15.159201   0.182055   0.141271   0.535685 
S    1.904416   3.087357  15.261671  -0.406569   0.168608   0.052113 
Mo   5.567919   3.179296  16.765353   0.370945  -0.430078   0.484508 
Mo   8.353646   4.790435  16.714155   0.221575  -0.485866  -0.667541 
S    7.558079   3.166158  18.321187  -1.002797   0.048822  -0.164252 
S   10.192459   4.774780  18.346327   0.245978   0.452445  -0.379449 
S   10.215660   4.811007  15.121956  -0.082784  -0.092136  -0.230082 
S    7.367211   3.171626  15.114187   0.100320   0.388409   0.118277 
Mo  11.176687   3.254920  16.720183  -0.384297  -0.623516   0.556735 
Mo  13.970798   4.833594  16.714306  -0.233876  -1.009502  -0.188267 
S   13.020765   3.304123  18.368974  -0.010156  -0.612932  -0.546800 
S   15.757787   4.829102  18.358624   0.324433   0.051957  -0.266881 
S   15.811794   4.800634  15.089073  -0.041782  -0.629995   0.269014 
S   13.025376   3.208071  15.142745   0.218969   0.225671  -0.173875 
Mo  16.709328   3.209177  16.780190   0.373877   0.379281   0.079706 
Mo  19.500657   4.825690  16.758869   0.454273  -0.847191   0.580090 
S   18.579756   3.186163  18.345550  -0.407289   0.854454   0.806921 
S   21.311389   4.804360  18.430729  -0.198470  -0.038727   0.216954 
S   21.383486   4.784627  15.170122  -0.049578  -0.495867   0.648882 
S   18.624703   3.141267  15.243353  -0.336524   0.173019  -0.337725 
Mo  22.257128   3.186701  16.909026  -0.029573  -0.108767  -0.678471 
Mo  25.050995   4.769858  16.816537  -0.626546  -0.139416   0.282938 
S   24.087249   3.216520  18.521378   0.304160  -0.171086  -0.668748 
S   26.836989   4.735591  18.432282   0.642815   0.062461   0.199410 
S   26.876465   4.723373  15.261400   0.776659  -0.013048   0.138208 
S   24.119153   3.121520  15.290553  -0.076593  -0.030572   0.107690 
Mo  27.873820   3.109152  16.903474  -0.904471   1.153211   0.666980 
Mo  30.615948   4.712469  16.920448   0.509397  -0.128603  -0.889793 
S   29.728847   3.166364  18.502344  -0.288751  -0.744029   0.188436 
S   32.476386   4.726040  18.571932  -0.052767  -0.107114  -0.932237 
S   32.452479   4.751169  15.341501   0.147605  -0.056101  -0.106644 
S   29.671317   3.110503  15.302144   0.565399  -0.014735  -0.028120 
Mo  -0.009944   6.368683  16.902633   0.178995  -0.739033  -0.205940 
Mo   2.852796   7.892462  16.802035  -1.195800   0.453526   0.656608 
S    1.860739   6.316252  18.419936   0.305987   0.386208   0.435568 
S    4.641946   7.852583  18.402285   0.525770   0.788286   0.028854 
S    4.629991   7.866690  15.187648   0.006306   0.354872  -0.291612 
S    1.840397   6.272616  15.302068  -0.256943   0.425347  -0.544838 
Mo   5.559086   6.325934  16.781202   0.000889  -0.767184  -0.028915 
Mo   8.369847   7.955481  16.686959  -0.862423  -0.255871   0.205754 
S    7.460733   6.335654  18.295560   0.017664   0.496884   0.263114 
S   10.237173   7.997347  18.275545  -0.146866  -0.095458   0.151789 
S   10.211964   7.999082  15.104337   0.011880  -0.583496  -0.253803 
S    7.327392   6.326812  15.080429   0.544417   0.312877   0.673926 
Mo  11.154545   6.372061  16.710269  -0.529198   0.282634  -0.363504 
Mo  13.947587   7.973569  16.558421  -0.528379   0.035012   0.383539 
S   13.002854   6.418809  18.214206   0.449009   0.401490   0.688831 
S   15.749973   8.017171  18.186127   0.054253   0.102120   0.146887 
S   15.854467   7.897288  15.030816  -0.373113   0.495993  -0.321303 
S   12.999701   6.312057  15.095719  -0.167019   0.414178  -0.666591 
Mo  16.703003   6.362756  16.684180   0.670661   0.281151   0.293889 
Mo  19.495340   7.991552  16.691904   0.056996  -0.092085  -0.411144 
S   18.524885   6.454738  18.308236   0.040424  -0.176494  -0.030431 
S   21.263298   7.924584  18.371475   0.468715   0.222325  -0.219255 
S   21.525430   7.959491  15.210456  -0.988115   0.131500   0.051192 
S   18.608571   6.307491  15.117571  -0.183230   0.802985  -0.168898 
Mo  22.285486   6.311605  16.816135   0.250554   1.160520   0.349953 
Mo  25.071561   7.982713  16.837784   0.282839  -0.266180  -0.143115 
S   24.171308   6.378242  18.419542  -0.547415  -0.126509  -0.008007 
S   26.940457   7.897854  18.440148  -0.487321   0.414447   0.475101 
S   26.972505   8.001578  15.304795  -0.228292  -0.088389  -0.197696 
S   24.078431   6.403179  15.200960   0.896394  -0.380141   0.371010 
Mo  27.857029   6.341816  16.866029  -0.250056  -0.598334  -0.389591 
Mo  30.563585   7.957716  16.970844   0.160397   0.523795  -0.875218 
S   29.702542   6.235198  18.454789  -0.542086   0.870139   0.881203 
S   32.386893   7.984363  18.546633   0.548078   0.220770  -0.255663 
S   32.428720   8.088988  15.339642  -0.473300  -1.182074  -0.153741 
S   29.721480   6.344213  15.291981  -0.028119   0.068987   0.248270 
Mo   0.082457   9.540820  16.851035  -0.487778   0.203082   0.707345 
Mo   2.808019  11.151629  16.822318  -0.490132   0.126152  -0.369063 
S    1.930544   9.592320  18.422103   0.171323  -0.839367   0.055705 
S    4.669903  11.139728  18.380085   0.157565  -0.264809  -0.115271 
S    4.561430  11.098521  15.170627   0.246584  -0.033861  -0.182212 
S    1.896962   9.473008  15.209311   0.035294   0.449278   0.349859 
Mo   5.548506   9.507667  16.745913   0.114373  -0.109647   0.414669 
Mo   8.357616  11.083976  16.651603  -0.479940   0.377597   0.005738 
S    7.394344   9.546687  18.351366   0.467169  -0.079621  -0.838545 
S   10.184243  11.158799  18.279080   0.239133  -0.091011  -0.325322 
S   10.211536  11.115357  15.074912  -0.206524   0.319346  -0.291173 
S    7.379591   9.501737  15.076572  -0.149709  -0.029092   0.346652 
Mo  11.135309   9.565505  16.664078   0.490986   0.241553   0.140008 
Mo  13.950329  11.117010  16.571767   0.154909   0.336643   1.103030 
S   13.024654   9.509498  18.194865   0.144522   0.430521  -0.073380 
S   15.808796  11.172229  18.214782  -0.375668   0.186339  -0.299468 
S   15.829576  11.219375  14.944372  -0.347178  -0.127354   0.609889 
S   12.954653   9.594885  14.976587   0.111718  -0.560941   0.230082 
Mo  16.679022   9.609781  16.582977   0.893487  -0.389422   0.303986 
Mo  19.549198  11.179792  16.709301  -0.745812  -0.110589   0.283374 
S   18.504269   9.574618  18.252350   0.046875   0.383005  -0.207090 
S   21.334635  11.156828  18.383407   0.152899   0.465184  -0.006354 
S   21.507458  11.085261  15.247781  -0.420227   1.031192  -0.637967 
S   18.586793   9.616686  15.075075   0.464424  -0.319392   0.016096 
Mo  22.347935   9.574281  16.850189  -0.028339  -0.867781   0.230047 
Mo  25.092004  11.192452  16.903484  -0.057826   0.416773   0.414527 
S   24.157217   9.543128  18.451704   0.032588   0.287102   0.258640 
S   26.891926  11.231360  18.552011   0.357559  -0.023345  -0.315814 
S   26.989781  11.219432  15.350038  -0.378663   0.190291   0.020014 
S   24.224606   9.636656  15.257851  -0.173168  -0.331887   0.035670 
Mo  27.814813   9.607745  16.943404   0.220020  -0.137320   0.439209 
Mo  30.614609  11.194719  16.926199   0.074190  -0.408167   0.413551 
S   29.628540   9.596049  18.583862   0.281617   0.016647  -0.514775 
S   32.461527  11.121631  18.492520   0.396727   0.806764   0.027581 
S   32.468717  11.184127  15.305447   0.006618   0.142478   0.290300 
S   29.624288   9.626954  15.375368   0.451923  -0.623774  -0.093907 
Mo   0.052035  12.796509  16.887089   0.080445  -0.864669  -0.278063 
Mo   2.795567  14.351461  16.815098  -0.062755   0.241537   0.147448 
S    1.944485  12.800198  18.474004  -0.362426  -0.254554  -0.456898 
S    4.733778  14.298259  18.404040  -0.366860   0.219641  -0.780766 
S    4.521725  14.261872  15.160722   0.653008   0.252274  -0.287224 
S    1.831687  12.780236  15.221174   0.084830  -0.243554   0.389144 
Mo   5.533189  12.689510  16.719721   0.506923   0.222531   0.059898 
Mo   8.353554  14.331798  16.587077   0.622914  -0.222919  -0.105599 
S    7.479035  12.691715  18.198062  -0.156161   0.488209   0.291027 
S   10.216500  14.403464  18.225604  -0.257257  -0.613180  -0.339165 
S   10.234714  14.336295  14.927848  -0.319337  -0.302980   0.858044 
S    7.336449  12.668587  15.035511   0.312391   0.127006   0.486085 
Mo  11.106462  12.746302  16.645044   0.493578  -0.035246   0.055108 
Mo  13.950010  14.330177  16.639767  -0.751717  -0.283727  -0.118589 
S   13.003489  12.664720  18.269803   0.067842   0.406412  -0.916217 
S   15.754390  14.413626  18.205502   0.010834  -0.405409   0.693740 
S   15.790965  14.340861  15.006958  -0.285640   0.642334   0.032636 
S   13.004858  12.681622  15.062219  -0.277014   0.687353  -0.148256 
Mo  16.686474  12.827688  16.625847   0.716291  -1.023957  -0.272831 
Mo  19.541118  14.355600  16.604700  -0.760903   0.015362   0.314864 
S   18.501396  12.858633  18.241516   0.599175  -0.581408  -0.187470 
S   21.319198  14.384633  18.278934  -0.290860   0.136592   0.496593 
S   21.436507  14.422959  15.095128   0.058490  -0.844746  -0.021946 
S   18.626629  12.711070  15.044204  -0.106785   0.203899   0.312045 
Mo  22.345469  12.804639  16.799945  -0.554187  -0.373034  -0.066944 
Mo  25.165969  14.341845  16.868322  -0.373273   0.307683   0.251038 
S   24.100577  12.815277  18.527059   0.378374  -0.120619  -0.903523 
S   26.979242  14.429571  18.563573  -0.568863  -0.651825  -0.118603 
S   27.070788  14.373706  15.276110  -0.435316   0.301343   0.549956 
S   24.224273  12.802686  15.295200   0.152510  -0.274791  -0.501594 
Mo  27.926259  12.832238  16.959120  -0.460183  -0.487733  -0.267767 
Mo  30.619369  14.387050  16.889958   0.330343   0.603218  -1.044807 
S   29.782586  12.852486  18.526644  -0.246528  -0.514620   0.187993 
S   32.450159  14.452152  18.427557   0.440246  -0.090887   0.754819 
S   32.484506  14.399933  15.263605  -0.355537   0.166966   0.357230 
S   29.739201  12.731189  15.282553  -0.256294   0.515844   0.372858 
Mo   0.056544  16.015119  16.819306  -0.622325  -0.256862   0.270945 
Mo   2.886099  17.518284  16.809313  -0.465753   0.615736  -0.809376 
S    1.909027  15.977118  18.399342   0.247603  -0.080434   0.299470 
S    4.803431  17.557211  18.294921  -0.128732  -0.371210   0.276156 
S    4.688734  17.541014  15.144851  -0.103647  -0.080216  -0.001833 
S    1.816240  15.978155  15.187399   0.730892  -0.099188   0.327970 
Mo   5.568978  15.865853  16.682217   0.862546   0.794479   0.070209 
Mo   8.382954  17.578053  16.587724   0.105769  -0.911882   0.170054 
S    7.498454  15.953542  18.195504  -0.213213  -0.223506  -0.073161 
S   10.252758  17.538710  18.207222  -0.163297  -0.091190  -0.378681 
S   10.192834  17.573170  15.008110   0.475301  -0.079971  -0.052826 
S    7.431598  15.919198  14.998597  -0.542736   0.110248   0.465250 
Mo  11.142118  15.895428  16.573535  -0.082161   1.131620   0.293030 
Mo  13.867449  17.597662  16.614760   1.228060  -1.447997   0.266987 
S   12.994037  15.944301  18.220138  -0.177656  -0.075307  -0.326469 
S   15.733598  17.586992  18.242118  -0.111737  -0.001518  -0.105022 
S   15.796187  17.584006  15.064890  -0.451099   0.193345  -0.372761 
S   13.006935  15.875438  15.027657   0.154547   0.597978  -0.036736 
Mo  16.641986  15.981075  16.641816   0.964855  -0.400376  -0.665398 
Mo  19.492945  17.559158  16.657350  -0.322011   0.139220  -0.327808 
S   18.528604  15.917475  18.183710   0.084057   0.283122   0.217049 
S   21.258406  17.586908  18.346001   0.266978   0.113076  -0.403750 
S   21.379762  17.612253  15.119812   0.128450   0.305095   0.268287 
S   18.554743  15.918053  15.018851  -0.017645   0.525418   0.464051 
Mo  22.233520  15.979958  16.730056   1.037304   0.481055   0.133700 
Mo  25.076891  17.562851  16.874322  -0.570854   0.400030  -0.229724 
S   24.082959  15.917759  18.337875  -0.160681   0.315759   0.611998 
S   26.830448  17.584472  18.577259   0.248650   0.221871  -0.214348 
S   26.981512  17.657441  15.421746  -0.132146  -0.279274  -0.618555 
S   24.207395  15.919184  15.236528   0.071546   0.376559   0.224081 
Mo  27.827787  15.985848  16.971903   0.538899   0.711353  -0.424241 
Mo  30.583933  17.657692  16.994071   0.222694   0.232666  -0.618361 
S   29.718417  15.964191  18.501388  -0.181803   0.203416   0.486587 
S   32.481670  17.626297  18.515138   0.162550  -0.138923   0.118717 
S   32.379452  17.664285  15.343421   0.181843   0.043915  -0.026877 
S   29.668411  16.102484  15.374524   0.113278  -0.500163  -0.073361 
Mo   0.094981  19.179029  16.908945  -0.129151  -0.091387  -0.476218 
Mo   2.905062  20.753490  16.783007  -0.308630   0.370425   0.085761 
S    2.038601  19.182820  18.375203  -0.121336  -0.514911   0.593939 
S    4.746060  20.789838  18.339392   0.668088  -0.147856  -0.180176 
S    4.744110  20.774707  15.145428  -0.438842  -0.025869  -0.176354 
S    1.907991  19.154474  15.245583   0.156499  -0.171371  -0.008588 
Mo   5.679089  19.162599  16.704916  -0.298935   0.034217  -0.346107 
Mo   8.387374  20.802081  16.609726   0.655759  -0.473049  -0.188592 
S    7.570192  19.151224  18.195368  -0.301755   0.310268   0.595256 
S   10.222187  20.851273  18.201721  -0.012799  -0.587982   0.235126 
S   10.252529  20.869035  15.031848  -0.117622  -0.582757  -0.181984 
S    7.469126  19.151470  14.999979  -0.206695   0.390980   0.222923 
Mo  11.101174  19.179976  16.614787   1.004992   0.270742  -0.034787 
Mo  13.878200  20.797244  16.672279  -0.011271   0.032643  -0.527634 
S   12.992518  19.144979  18.201522  -0.744870   0.332574   0.497412 
S   15.698102  20.702987  18.231550   0.214760   0.188066   0.699214 
S   15.734894  20.793545  15.106780   0.351081   0.092524  -0.213574 
S   13.033568  19.152964  15.069551  -0.839164   0.816473  -0.659634 
Mo  16.712627  19.162843  16.647536  -0.353776   0.271880  -0.137783 
Mo  19.490680  20.856683  16.752149   0.080297  -1.020880  -0.322043 
S   18.545633  19.155578  18.226477   0.094885   0.080669   0.456755 
S   21.364433  20.824015  18.365271  -0.735071   0.049151   0.237593 
S   21.363845  20.858242  15.133909  -0.123000  -0.205914   0.317355 
S   18.595545  19.178955  15.059908   0.118083   0.545871   0.571583 
Mo  22.248069  19.249222  16.798227   0.235170  -1.131399  -0.769601 
Mo  25.021179  20.848625  16.878503  -0.608482  -0.206268  -0.180849 
S   24.110954  19.205086  18.400660  -0.341465  -0.218720   0.343642 
S   26.792385  20.907755  18.549058   0.490502  -0.280339  -0.351426 
S   26.827651  20.851662  15.342165   0.908684  -0.433477  -0.174637 
S   24.161527  19.157063  15.244181   0.032285   0.492693   0.413648 
Mo  27.806491  19.265010  17.020527  -0.146912   0.206207  -0.428593 
Mo  30.702838  20.904874  16.999294  -0.681824  -0.912484  -0.526369 
S   29.694833  19.308225  18.551005   0.011947  -0.119365   0.413649 
S   32.579482  20.731989  18.639160  -0.411534   0.565022  -0.549599 
S   32.507156  20.794417  15.331177  -0.252033   0.130086   0.261638 
S   29.676980  19.332266  15.397719   0.035840  -0.154839   0.602687 
Mo   0.048868  22.323437  16.931414   0.372174   0.477620   0.103053 
Mo   2.857706  23.948673  16.843899   0.159579   0.297221   0.353577 
S    1.971907  22.350889  18.447137   0.076714  -0.185001  -0.049295 
S    4.786405  23.937581  18.335312  -0.025751   0.459805   0.194899 
S    4.624992  23.930267  15.175022   0.311494   0.841660  -0.017633 
S    1.862216  22.359433  15.317420   0.051837   0.118676  -0.617641 
Mo   5.671518  22.400646  16.701732  -0.054712  -0.819956   0.233301 
Mo   8.369047  24.040468  16.559864   0.697405  -0.021686   0.569256 
S    7.581578  22.390509  18.204970  -0.437553   0.481621   0.364089 
S   10.180846  24.046558  18.167848   0.059372   0.031095   0.414063 
S   10.305131  24.017766  15.022891  -0.616502   0.609292  -0.191088 
S    7.499408  22.389886  15.064744  -0.741429   0.239396  -0.771846 
Mo  11.126170  22.433751  16.634504   1.203327   0.172427  -0.369214 
Mo  13.946691  24.038237  16.715874   0.003926   0.497503  -0.072370 
S   12.931990  22.398376  18.263167   0.239836   0.238685  -0.013414 
S   15.765323  23.994029  18.360382  -0.253225  -0.205730  -0.056294 
S   15.876304  24.034093  15.172620  -0.482340   0.205942   0.078008 
S   13.100870  22.505549  15.060208  -0.758659  -0.516982   0.361759 
Mo  16.658024  22.368319  16.752676   0.370239   0.350246  -0.134165 
Mo  19.403730  24.024176  16.857339   0.604287   0.151585   0.500787 
S   18.449974  22.350624  18.397012   0.277863   0.083959   0.026833 
S   21.250745  23.970859  18.408377   0.251948   0.179074   0.153369 
S   21.272736  24.073536  15.266573  -0.063193  -0.100647  -0.300410 
S   18.568696  22.473459  15.228224  -0.368834  -0.306714  -0.499067 
Mo  22.214019  22.419268  16.772773   0.726872   0.511348   0.420277 
Mo  25.069394  24.007842  16.837225  -0.765902  -0.312067   0.329170 
S   24.021360  22.425067  18.454655   0.104743   0.192465  -0.469096 
S   26.829184  23.937919  18.437394   0.469609   0.691526   0.739140 
S   26.978344  23.982405  15.244777  -0.390314   0.451696   0.343986 
S   24.141314  22.470979  15.252879  -0.200558  -0.668462  -0.235354 
Mo  27.842596  22.429558  16.881397  -0.001453  -0.538322   0.367911 
Mo  30.616305  24.072526  16.996937  -0.579136  -0.800027  -1.159933 
S   29.652345  22.447007  18.560964   0.085174   0.197799  -0.159642 
S   32.424334  23.974077  18.528936   0.800396   0.103797   0.439118 
S   32.489156  24.038026  15.383939  -0.386764  -0.907267  -0.242706 
S   29.732368  22.460274  15.314624   0.258220  -0.037864   0.714171 
