288
Lattice="33.33576 0.035066 0.030854 0.026982 25.648337 -0.000664 0.027079 9e-05 30.435606 " PBC="1 1 1" Properties="species:S:1:pos:R:3:force:R:3" Energy=" -5.285974"
Mo   0.049921  -0.041743  16.812741  -0.059257  -0.193484   0.118771 
Mo   2.813145   1.589628  16.830985   0.470547  -0.812869  -0.115073 
S    1.915631  -0.021096  18.412203  -0.184933  -0.166616  -0.237041 
S    4.687985   1.536966  18.409970   0.227756   0.260766   0.071312 
S    4.697218   1.573929  15.224220  -0.020441  -0.158013   0.539088 
S    1.879708   0.051382  15.126648   0.055700  -0.468943   0.923661 
Mo   5.632215  -0.060408  16.832036  -0.972757   0.126263  -0.809019 
Mo   8.448630   1.545092  16.830725  -0.632007  -0.673652  -1.006884 
S    7.454892  -0.114201  18.358636   0.694400   0.097756   0.529784 
S   10.284792   1.518842  18.345586   0.372479   0.105173   0.330916 
S   10.272242   1.523538  15.162681  -0.310818  -0.109862   0.186315 
S    7.452233  -0.027034  15.188211   0.166457  -0.038235   0.518931 
Mo  11.117163  -0.129397  16.757570   1.105431   0.295492  -1.237773 
Mo  13.902938   1.546534  16.717383   1.054660  -0.215693   0.216008 
S   13.065583  -0.115145  18.299920  -0.564371  -0.218723  -0.174397 
S   15.884223   1.528800  18.277087  -1.400172  -0.293929   0.457394 
S   15.761820   1.625834  15.132461   0.073756  -0.808978  -0.141156 
S   13.013626  -0.054288  15.090557  -0.465809  -0.271957   0.652327 
Mo  16.709399  -0.082837  16.690122   0.035095   0.670207  -0.369211 
Mo  19.454625   1.541114  16.748595   1.118215  -0.295325   0.124461 
S   18.552502  -0.031179  18.340920  -0.291152  -0.348602  -0.110403 
S   21.368528   1.565794  18.330775  -0.607872  -0.104741   0.541714 
S   21.368384   1.465069  15.179286   0.028460   0.973461   0.377655 
S   18.569866  -0.026406  15.141353  -0.054952  -0.138191  -0.448389 
Mo  22.315631  -0.047589  16.814487  -0.720440   0.073041  -0.193258 
Mo  25.054004   1.611214  16.756082   0.300809  -0.445457   0.960890 
S   24.105720   0.026598  18.434464   0.520151   0.093490  -0.187747 
S   26.917184   1.577857  18.391244  -0.320397  -0.255141   0.602979 
S   27.021726   1.544248  15.316408  -0.571024   0.180606  -0.941440 
S   24.119707  -0.038327  15.201466   0.464937  -0.094580   0.284596 
Mo  27.880383  -0.055667  16.881232   0.025494  -0.319724  -0.392796 
Mo  30.650025   1.553361  16.852774  -0.825452   0.397025   0.585303 
S   29.766670  -0.067425  18.432695  -0.684610   0.455602   0.545104 
S   32.454408   1.563881  18.499966   0.275413   0.074930  -0.431927 
S   32.432054   1.559766  15.308324   0.697291   0.633800  -0.767379 
S   29.735331   0.003355  15.178124  -0.510047  -0.293030   0.944175 
Mo   0.030676   3.165057  16.871636   0.108037   0.269304   0.692409 
Mo   2.920120   4.745103  16.839860  -0.677396  -0.387829   0.657498 
S    1.944843   3.143594  18.489734  -0.296283   0.319051  -0.585968 
S    4.752152   4.785565  18.488908   0.196875  -0.089335  -0.879437 
S    4.722330   4.658977  15.204457   0.121014   0.719438   0.224792 
S    1.859542   3.161404  15.309068   0.273820   0.308404  -0.597574 
Mo   5.662762   3.172427  16.838505  -0.045047  -0.650672   0.310879 
Mo   8.443897   4.749506  16.733275  -0.467926  -0.270419  -0.061435 
S    7.567794   3.153569  18.396209  -0.331223   0.237068   0.052231 
S   10.231613   4.797745  18.326419   0.819429  -0.365016  -0.143197 
S   10.264309   4.645935  15.111509  -0.015834   0.956739   0.063542 
S    7.480637   3.064841  15.200843   0.054576   0.613216   0.196478 
Mo  11.206451   3.137663  16.713833  -0.078162  -0.167846   1.110225 
Mo  13.954370   4.764603  16.777412   0.393393  -0.750012  -0.099910 
S   13.035762   3.098257  18.378399  -0.141277   0.405271  -0.391698 
S   15.807481   4.721284  18.406080  -0.292548  -0.044732  -0.064451 
S   15.829569   4.794802  15.178210  -0.374089  -0.066874   0.071127 
S   13.056463   3.179421  15.122129  -0.166982  -0.021290   0.219184 
Mo  16.678642   3.153525  16.748959   0.843373   0.358581  -0.306531 
Mo  19.545475   4.765677  16.820531   0.024779  -0.779030   0.271713 
S   18.491168   3.071720  18.339957   0.591291   0.816280   0.278250 
S   21.420486   4.797552  18.467910  -0.523257  -0.325331  -0.367982 
S   21.447068   4.816259  15.227861  -0.757936  -0.657472  -0.048995 
S   18.583489   3.136237  15.198063   0.008967   0.540426  -0.128390 
Mo  22.283305   3.187060  16.837962   0.371141  -0.097376  -0.742521 
Mo  25.031349   4.832614  16.806811   0.180463  -0.499776   0.155338 
S   24.189207   3.208369  18.421481  -0.535147  -0.206923  -0.411409 
S   26.772742   4.844628  18.436599   1.198401  -0.761479   0.238738 
S   26.943785   4.767948  15.295431   0.134790   0.318691  -0.016894 
S   24.103880   3.250879  15.199765   0.173094  -0.289972   0.118891 
Mo  27.889476   3.149601  16.874081  -0.883268   1.054508   0.463846 
Mo  30.614445   4.776516  16.912418   0.576282   0.089720  -0.461248 
S   29.683883   3.140195  18.498875   0.324085  -0.019783  -0.272032 
S   32.438598   4.870840  18.511624   0.575705  -0.438985  -0.432144 
S   32.509038   4.841778  15.273641  -0.476493  -0.379759   0.477581 
S   29.698915   3.177569  15.288626   0.383438   0.007452  -0.131563 
Mo   0.103100   6.393611  16.844697  -0.349109  -0.321913   0.586658 
Mo   2.938396   7.926933  16.781781  -1.076443   0.129568   1.315321 
S    2.006773   6.335547  18.423576  -0.219661   0.343845  -0.130967 
S    4.817911   7.963562  18.395735  -0.254240   0.363476  -0.211085 
S    4.710068   7.912824  15.252269   0.604427   0.561601  -0.915738 
S    1.963095   6.302249  15.261667  -0.101145   0.313872  -0.432737 
Mo   5.695793   6.356123  16.785651  -0.729268  -0.798150   0.451113 
Mo   8.413100   8.042276  16.686486  -0.930807  -0.685445  -0.033210 
S    7.533561   6.354748  18.340424   0.386995   0.527942  -0.261898 
S   10.246487   8.028241  18.227636   0.281628  -0.344070   0.737219 
S   10.246101   7.963329  15.062849  -0.018764  -0.456982   0.177140 
S    7.465251   6.332867  15.160777   0.476135   0.317463  -0.195878 
Mo  11.193925   6.360362  16.715529  -0.532592  -0.139668  -0.291754 
Mo  14.039132   7.935868  16.763086  -0.602707  -0.076430  -0.385286 
S   13.087920   6.401674  18.304060  -0.815292  -0.395218   0.674208 
S   15.863665   7.956199  18.407660  -0.289162   0.274035  -0.080129 
S   15.901474   7.892512  15.226830  -0.143153   0.319744  -0.400820 
S   13.028164   6.309910  15.164214   0.519890   0.462266  -0.150283 
Mo  16.741593   6.320982  16.835537   0.762211   0.129274   0.400949 
Mo  19.494712   7.939345  16.809357   0.056700   0.087063  -0.303799 
S   18.640953   6.333992  18.454659  -0.416688   0.049152  -0.391486 
S   21.363964   8.037443  18.369587   0.330628  -0.260635  -0.072245 
S   21.327889   7.879260  15.190335   0.400207   0.526009   0.288839 
S   18.566197   6.297696  15.248111   0.306114   0.360127  -0.268024 
Mo  22.314741   6.354543  16.827843  -0.361444   1.024240   0.398351 
Mo  25.100081   8.030892  16.877619  -0.051391  -0.161926  -0.893030 
S   24.116120   6.398254  18.449667   0.268558   0.211615  -0.065325 
S   26.937464   7.972210  18.436490  -0.026300   0.684055   0.674883 
S   27.027580   7.937487  15.272515  -0.815662   0.186723  -0.057557 
S   24.157188   6.449643  15.269249   0.154064   0.164511  -0.473254 
Mo  27.879456   6.403480  16.930699  -0.171938  -0.873865  -0.965005 
Mo  30.617632   8.004857  16.851907  -0.036465   0.034156  -0.057975 
S   29.767739   6.411904  18.478629  -0.535655  -0.121602   0.274287 
S   32.428094   8.102859  18.443066   0.714282  -1.100618   0.291274 
S   32.458168   7.986131  15.266634   0.415455   0.112724  -0.009657 
S   29.695681   6.342619  15.295553   0.106160   0.254200  -0.053729 
Mo   0.127709   9.534695  16.838580  -0.399820   0.305587   0.304519 
Mo   2.905969  11.161674  16.789161  -0.856433  -0.071831  -0.331752 
S    2.021131   9.522618  18.419048  -0.042395   0.131982  -0.427805 
S    4.707924  11.264055  18.369181   0.512789  -0.022933   0.095122 
S    4.688696  11.180856  15.100460  -0.070970   0.075114   0.459194 
S    1.926751   9.541443  15.212188   0.419219  -0.042381   0.094003 
Mo   5.607930   9.667577  16.780259   0.546278  -1.143466  -0.158905 
Mo   8.498487  11.172936  16.604645  -1.356462   0.133802  -0.660110 
S    7.526181   9.714514  18.319498   0.043006  -0.320287  -0.590923 
S   10.314451  11.143808  18.145859   0.258550   0.506974   0.544278 
S   10.329487  11.097135  14.964018  -0.267227   0.128426   0.361166 
S    7.331958   9.615665  15.071227   0.870152  -0.208021   0.446077 
Mo  11.240609   9.510903  16.636684   0.297401   0.868049  -0.442276 
Mo  14.016560  11.105045  16.598993  -0.515859   0.484318   0.238814 
S   13.070855   9.583668  18.303302   0.007284   0.032051  -0.529714 
S   15.833807  11.231080  18.305471  -0.470885   0.214076  -0.572241 
S   15.895165  11.104662  15.056312  -0.121913   0.364602   0.260292 
S   13.113187   9.400450  15.065605   0.109204   0.520019   0.075425 
Mo  16.744993   9.588778  16.777021   0.514861  -0.595722  -0.391998 
Mo  19.520040  11.159163  16.691425  -0.426629  -0.291062   0.795327 
S   18.571313   9.552137  18.371339   0.338624   0.616519  -0.138325 
S   21.370570  11.125192  18.267789   0.045133   0.587488   0.368774 
S   21.329283  11.092806  15.114932   0.871602   0.775509  -0.119414 
S   18.598409   9.545657  15.155618  -0.137843  -0.365070   0.132517 
Mo  22.353993   9.577301  16.718128  -0.984607  -0.645800   0.544735 
Mo  25.048845  11.241485  16.764309   0.683639  -0.091729   0.254157 
S   24.197457   9.697413  18.402448  -0.715003  -0.516585  -0.057709 
S   26.890764  11.214397  18.403630   0.023894  -0.034428   0.066196 
S   26.955226  11.214778  15.261450  -0.065880   0.129891  -0.331457 
S   24.169929   9.609967  15.186694   0.639158  -0.362295  -0.139060 
Mo  27.846490   9.594538  16.826104   0.332211   0.041975   0.988705 
Mo  30.611700  11.173488  16.856945   0.185550  -0.170732   0.573284 
S   29.723629   9.597451  18.482231  -0.600205  -0.038378  -0.456533 
S   32.478389  11.135830  18.517705   0.284670   0.326593  -0.740808 
S   32.471229  11.124342  15.344360   0.503953   0.800944  -0.530004 
S   29.680183   9.604807  15.266671   0.259014  -0.134387  -0.423716 
Mo   0.122004  12.740786  16.891864  -0.554615  -0.602257  -0.186976 
Mo   2.882751  14.337487  16.764655  -0.147562   0.274478   0.378708 
S    1.974468  12.702411  18.443238   0.288514   0.445366  -0.428556 
S    4.771020  14.371100  18.358900  -0.350147  -0.064403  -0.393080 
S    4.721074  14.360335  15.060703  -0.755677  -0.004751   0.462179 
S    1.914404  12.751985  15.187602  -0.127250  -0.153377   0.482717 
Mo   5.629984  12.807587  16.695370   0.301017  -0.267539  -0.310077 
Mo   8.421857  14.462672  16.606552   0.696559  -0.286618  -1.006615 
S    7.592369  12.839572  18.137264  -0.150522  -0.376206   0.791104 
S   10.329003  14.412089  18.160879  -0.310340  -0.125288  -0.247105 
S   10.236808  14.423878  14.895755  -0.106965  -0.486759   0.613959 
S    7.478579  12.820762  15.053123   0.100930  -0.142168   0.126462 
Mo  11.159651  12.790640  16.538637   0.811136  -0.435273  -0.675459 
Mo  13.971999  14.349797  16.436290  -0.559007   0.066535   0.811515 
S   13.045580  12.789863  18.092922  -0.082389  -0.021198  -0.191179 
S   15.717679  14.332228  18.154955  -0.358985   0.813550   0.510748 
S   15.814660  14.397747  14.965049   0.729796  -0.094152  -0.442195 
S   13.054732  12.662014  14.898373  -0.152470   0.062257   0.653973 
Mo  16.706996  12.841098  16.636357   0.779861  -1.800265  -0.317050 
Mo  19.521029  14.377117  16.707155   0.118301  -0.414673   0.084822 
S   18.590920  12.773828  18.277288  -0.374816   0.087792  -0.201640 
S   21.354540  14.371611  18.317314  -0.131078  -0.215816   0.196017 
S   21.422364  14.413678  15.157896  -0.301442  -0.232176  -0.126850 
S   18.602045  12.764878  15.096122   0.203083   0.244885  -0.066881 
Mo  22.331708  12.774938  16.726050  -0.842220  -0.001109  -0.278865 
Mo  25.052716  14.404760  16.836817   0.472179   0.012315  -0.558226 
S   24.119510  12.813645  18.369241  -0.123568  -0.074808   0.274183 
S   26.912859  14.380102  18.473684  -0.459924   0.182363  -0.032903 
S   26.947369  14.393251  15.220869  -0.546090  -0.070071   0.165701 
S   24.186088  12.819054  15.138081  -0.133395   0.225580   0.212997 
Mo  27.847369  12.848353  16.863831   0.160072  -1.142764  -0.310958 
Mo  30.640489  14.326862  16.907344  -0.218832   0.537024  -0.524106 
S   29.690570  12.717600  18.471238  -0.037057   0.339226   0.071041 
S   32.486855  14.356888  18.518011   0.248673   0.290345  -0.146589 
S   32.523193  14.370294  15.370919  -0.197986   0.073828  -0.451299 
S   29.694625  12.768808  15.244877   0.217988   0.241581   0.361829 
Mo   0.110390  15.961955  16.883311  -0.837218  -0.262878   0.277328 
Mo   2.827898  17.556189  16.734405   0.207779   0.799262   0.603473 
S    1.969385  15.964562  18.411203   0.333650  -0.154833  -0.238956 
S    4.692720  17.560642  18.330570   0.122988  -0.021207  -0.522461 
S    4.667450  17.602725  15.110543  -0.472885  -0.555280  -0.258513 
S    1.862259  15.951787  15.210010   0.331219  -0.256043  -0.140579 
Mo   5.566341  15.938800  16.685027   0.920238   0.857401   0.202361 
Mo   8.374895  17.631166  16.612698   0.480866  -0.873741  -0.246521 
S    7.504004  15.966343  18.236492  -0.244092   0.545119  -0.094930 
S   10.277601  17.578041  18.117106   0.203346  -0.108250   0.038293 
S   10.257432  17.596482  14.942446  -0.518238  -0.084375   0.032300 
S    7.405496  16.071890  15.049124  -0.067807  -0.488528   0.005182 
Mo  11.221065  15.955992  16.499404  -0.557151   0.614269  -0.239361 
Mo  13.943310  17.606361  16.526629   0.805345  -0.980332   0.159643 
S   13.035853  15.917212  18.051052   0.353911   0.303210   0.401230 
S   15.778850  17.560444  18.205996  -0.421875   0.212419  -0.054581 
S   15.884552  17.654551  15.032450  -0.403549  -0.798253  -0.265607 
S   13.080465  16.005631  14.865679  -0.233856  -0.066276   0.280871 
Mo  16.697755  15.956450  16.645782   0.048176   0.206002  -0.555295 
Mo  19.474177  17.574518  16.739832   0.056110  -0.353490   0.143052 
S   18.475242  15.914194  18.298121   0.384107   0.318023  -0.055342 
S   21.241145  17.632087  18.419917   0.311894  -0.497110  -0.351720 
S   21.324085  17.652206  15.160209   0.462501  -0.238621   0.608555 
S   18.618702  15.953391  15.137449  -0.193954   0.190549  -0.508103 
Mo  22.230549  16.007406  16.796829   0.655239   0.687624  -0.205048 
Mo  25.025850  17.627684  16.793143   0.288013  -0.160440   0.332193 
S   24.088389  16.025247  18.422885  -0.027023   0.046894  -0.375774 
S   26.903758  17.589991  18.362095  -0.097541   0.273286   0.398703 
S   26.965181  17.571187  15.253654  -0.569453   0.046464  -0.364556 
S   24.126680  15.978213  15.219789  -0.087997   0.358669   0.174169 
Mo  27.802031  15.938417  16.850247   0.445986   0.622156  -0.170283 
Mo  30.640281  17.523001  16.859968   0.004923   0.664674   0.466038 
S   29.636152  15.939266  18.427646   0.410168   0.015075   0.485476 
S   32.469009  17.617106  18.512566   0.281045   0.017474  -0.733741 
S   32.473436  17.551310  15.297181   0.291976  -0.097158  -0.327365 
S   29.674393  15.970359  15.286047   0.391442  -0.741535  -0.082623 
Mo   0.063228  19.176145  16.782184  -0.251919  -0.014376   0.822800 
Mo   2.834864  20.823169  16.793298   0.154652  -0.219854  -0.093527 
S    1.937709  19.210481  18.356723  -0.026053  -0.475028   0.048423 
S    4.754251  20.741880  18.290412  -0.247101   0.147763   0.355587 
S    4.621489  20.844872  15.151073   0.398840  -0.020233   0.131334 
S    1.900064  19.257850  15.203842   0.062224  -0.568069  -0.279993 
Mo   5.607122  19.144801  16.669609  -0.008744   0.687731   0.390442 
Mo   8.336138  20.789122  16.669982   0.557788  -0.174168  -0.485739 
S    7.498020  19.181556  18.212946  -0.414572  -0.283349   0.786091 
S   10.243074  20.718297  18.204215   0.048096  -0.061036   0.232542 
S   10.168618  20.836094  15.031536  -0.068414   0.032153  -0.124900 
S    7.412704  19.192009  15.037346   0.004757   0.229946  -0.089854 
Mo  11.131967  19.192528  16.517172   0.962776  -0.118966   0.568101 
Mo  13.976301  20.772640  16.580037  -0.260424  -0.038650   0.200337 
S   13.035832  19.141569  18.104312  -0.525380   0.322773   0.375941 
S   15.757712  20.772436  18.237156   0.416789   0.049431  -0.067411 
S   15.872876  20.790482  15.054502  -0.136826   0.110049  -0.311487 
S   13.051922  19.191221  14.962815  -0.365355   0.329808  -0.411509 
Mo  16.732504  19.187490  16.646501  -0.134959  -0.054998   0.780381 
Mo  19.441933  20.817752  16.705469   0.763218  -0.536641   0.574321 
S   18.523018  19.123003  18.287077  -0.148123   0.844683   0.215983 
S   21.237143  20.789992  18.416695   0.034525   0.202718  -0.271058 
S   21.377826  20.780267  15.239417  -0.165965   0.172991  -0.467120 
S   18.593631  19.140902  15.136919   0.240025   0.483604  -0.644756 
Mo  22.236691  19.224118  16.853543   0.251742  -0.691256  -0.448788 
Mo  25.048198  20.852443  16.929787  -0.296167  -0.551379  -0.989147 
S   24.089558  19.197391  18.456831   0.091892  -0.042026  -0.204099 
S   26.890700  20.787318  18.464264   0.731161  -0.287603  -0.191811 
S   26.870146  20.780263  15.278999   0.242040   0.207015   0.013275 
S   24.148600  19.299499  15.246506  -0.274279  -0.169496   0.426522 
Mo  27.901797  19.171823  16.788317  -0.823742   0.517988   0.974656 
Mo  30.637605  20.840917  16.838704   0.282119  -0.664628  -0.322237 
S   29.743766  19.183380  18.394097  -0.223857   0.102071   0.269212 
S   32.513161  20.856207  18.419815  -0.332865  -0.280050  -0.041376 
S   32.503317  20.781020  15.184896  -0.414742   0.301898   0.414932 
S   29.772441  19.133693  15.243864  -0.073159   0.453812   0.033597 
Mo   0.037042  22.392893  16.772942   0.199803   0.029881   0.453320 
Mo   2.830041  24.046811  16.761745   0.065413   0.009566   0.583043 
S    1.906869  22.376083  18.379913  -0.009842   0.712498  -0.010765 
S    4.670532  23.947178  18.402482   0.051247   0.549235  -0.106792 
S    4.682700  24.032762  15.181007   0.080880   0.341367   0.097143 
S    1.899317  22.432901  15.243716  -0.025892  -0.065706  -0.826569 
Mo   5.607607  22.451067  16.763980   0.110116  -1.345991  -0.065426 
Mo   8.390034  23.929569  16.746583   0.355052   0.852487  -0.615394 
S    7.532153  22.349095  18.325379  -0.751085   0.043646   0.345743 
S   10.290974  23.882402  18.274404  -0.399533   0.221015   0.687449 
S   10.167128  23.939366  15.051557   0.427255   0.326570   0.878311 
S    7.402771  22.395574  15.151159  -0.095738   0.318693  -0.515058 
Mo  11.155861  22.347867  16.671408   0.876526   0.178684  -0.830429 
Mo  13.950918  23.911669  16.675683   0.496255   1.256037  -0.166647 
S   13.106052  22.329213  18.264525  -0.789001  -0.347551  -0.319729 
S   15.862066  23.998391  18.269207  -0.629585  -0.614235   0.012930 
S   15.790601  23.954046  15.095519   0.233083   0.333795  -0.324046 
S   13.035550  22.373107  15.014533  -0.361047   0.179099   0.414221 
Mo  16.763577  22.388068  16.657096  -0.177445  -0.009569   0.515653 
Mo  19.472193  24.001702  16.732644   0.397840   0.144394   0.596936 
S   18.576684  22.404214  18.312206  -0.422570  -0.053046  -0.048641 
S   21.330616  24.039883  18.384992  -0.134002  -0.344667  -0.018158 
S   21.342643  24.007122  15.258570   0.733171  -0.351533  -0.603806 
S   18.620688  22.433049  15.057536  -0.142602  -0.202873   0.260871 
Mo  22.266999  22.371209  16.835334  -0.154682   0.768587   0.197595 
Mo  25.063151  24.021224  16.893296  -0.060958   0.153952  -0.296345 
S   24.081677  22.457624  18.480324   0.050825  -0.237580   0.047812 
S   27.000270  23.968405  18.494270  -0.808729   0.510820  -0.240986 
S   26.882437  23.983816  15.307304   0.398568   0.310303  -0.255142 
S   24.130726  22.406962  15.240889   0.237688   0.214758   0.671364 
Mo  27.825749  22.406690  16.863617   0.441844  -0.675542  -0.143619 
Mo  30.586625  24.007373  16.856618  -0.024148  -0.045957  -0.770096 
S   29.686352  22.443727  18.456505   0.048956  -0.608620  -0.046171 
S   32.440672  24.040717  18.418809   0.436688  -0.321211   0.139140 
S   32.351718  24.005522  15.283949   1.041324   0.295646  -0.645923 
S   29.679946  22.387740  15.228953  -0.253813   0.287412   0.330882 
