288
Lattice="33.333728 0.034857 0.030869 0.026822 25.651525 -0.000664 0.027092 9e-05 30.615486 " PBC="1 1 1" Properties="species:S:1:pos:R:3:force:R:3" Energy=" -5.285601"
Mo   0.109058  -0.058778  16.689910  -0.252927  -0.225245   0.167581 
Mo   2.882905   1.566095  16.785127  -0.067907   0.155941  -0.044017 
S    1.893652  -0.040390  18.336299   0.357834   0.141072   0.374150 
S    4.724016   1.580079  18.384172  -0.047292  -0.501094   0.056815 
S    4.734585   1.558911  15.213165   0.118640  -0.282508  -0.277709 
S    1.993345  -0.070375  15.166054   0.288665  -0.164947   0.252215 
Mo   5.664005  -0.059460  16.789347  -0.228783  -0.068605   0.352372 
Mo   8.466727   1.508125  16.799012   0.153591   0.683529   0.306083 
S    7.515982  -0.080270  18.379445  -0.285861   0.518486   0.645931 
S   10.333722   1.530557  18.424705  -0.637092  -0.377923   0.218298 
S   10.336288   1.502421  15.237118  -0.163030  -0.389211  -0.241392 
S    7.563758  -0.069184  15.244913  -0.262440  -0.475540  -0.292789 
Mo  11.234172  -0.111441  16.863623  -0.104776   0.313228   0.221776 
Mo  14.034903   1.506560  16.868679  -0.341742  -0.195545  -0.664745 
S   13.094494  -0.112433  18.472695  -0.248669   0.693962   0.277452 
S   15.950666   1.476176  18.395234  -0.263360   0.260018   0.222608 
S   15.852460   1.476759  15.197735  -0.027426   0.627073   0.247755 
S   13.067896  -0.142955  15.265458   0.240069   0.335484   0.322062 
Mo  16.890521  -0.042357  16.770186  -0.964105  -0.263024   0.596523 
Mo  19.632395   1.548317  16.756443  -0.946397   0.087815  -0.612484 
S   18.730663  -0.020372  18.336789   0.198133  -0.090647   0.414921 
S   21.430151   1.622348  18.334332   0.327217  -0.629012   0.197781 
S   21.430408   1.622526  15.125232   0.161439  -0.512810   0.134426 
S   18.670045  -0.047529  15.120085   0.421497   0.220699   0.201166 
Mo  22.392814  -0.015464  16.738522  -0.475210   0.514426   0.313200 
Mo  25.071077   1.602265  16.762569  -0.303653   0.614999   0.291456 
S   24.196644   0.008091  18.398284   0.044538   0.179246  -0.241096 
S   26.953153   1.641249  18.311413  -0.332203  -0.321260   0.521142 
S   26.904344   1.620822  15.176498   0.055531  -0.231485  -0.452764 
S   24.176039   0.007535  15.149968   0.553558  -0.276181   0.053671 
Mo  27.871115   0.029840  16.745178   0.354866  -0.631609  -0.200391 
Mo  30.696859   1.615490  16.707157  -0.700480  -0.851733   0.017223 
S   29.730234   0.060863  18.310175   0.101090  -0.403843  -0.319590 
S   32.525942   1.519981  18.337432  -0.231852   0.542383  -0.079092 
S   32.552050   1.575227  15.126635  -0.161599  -0.117100  -0.285163 
S   29.723002  -0.037548  15.036741  -0.017734   0.227432   1.310210 
Mo   0.098677   3.105221  16.702742   0.375601   0.669328  -0.447750 
Mo   2.925384   4.819921  16.757806  -0.018222  -0.400213   0.421665 
S    1.899528   3.248522  18.318314   0.505337  -0.508438   0.175541 
S    4.800547   4.738321  18.432675  -0.360510   0.328439  -0.917425 
S    4.812443   4.715033  15.165721  -0.212647   0.458220   0.343618 
S    2.011967   3.190755  15.172266  -0.084795  -0.050145  -0.037188 
Mo   5.693734   3.128383  16.800510  -0.309393   0.379454  -0.654392 
Mo   8.448578   4.732370  16.794755   0.061512   0.134762   0.677821 
S    7.482268   3.125636  18.352970   0.619294  -0.175395   0.538107 
S   10.250682   4.657581  18.442362   0.126488   0.109000  -0.193964 
S   10.305741   4.703124  15.190787   0.013644   0.013275   0.445644 
S    7.594931   3.175070  15.184054  -0.468423  -0.648881   0.086799 
Mo  11.182253   3.076273  16.823893   0.810493   0.958246   0.194481 
Mo  13.966926   4.717161  16.944436   0.982706  -0.446960  -0.395827 
S   13.054576   3.093358  18.438127  -0.284588  -0.361786   0.387739 
S   15.834554   4.646199  18.529889   0.138960  -0.259236  -0.279350 
S   15.783974   4.719641  15.303496   0.293261   0.073192   0.198840 
S   13.061819   3.180598  15.292327   0.253918  -0.653665   0.003374 
Mo  16.811321   3.098940  16.812093  -0.927289  -0.016938   0.328338 
Mo  19.493591   4.694301  16.835087   0.909669   0.627442   0.630769 
S   18.661340   3.045201  18.390012  -0.173472   0.253364   0.320390 
S   21.355404   4.703305  18.462000   0.108138   0.210775  -0.562010 
S   21.324600   4.797927  15.235721   0.140003   0.348812  -0.247783 
S   18.613154   3.153637  15.226444   0.021821  -0.243707  -0.652651 
Mo  22.288769   3.211197  16.747182   0.927747  -0.109344   0.248990 
Mo  25.073233   4.802033  16.860305   0.094806  -0.198315  -1.088221 
S   24.087126   3.259025  18.434522   0.353014  -0.751416  -0.803267 
S   26.960679   4.779758  18.429909  -0.154337  -0.030780  -0.506530 
S   26.899428   4.830390  15.167767  -0.241203  -0.282765   0.186195 
S   24.146923   3.185610  15.088693   0.126317   0.490871   1.384668 
Mo  27.814491   3.214268  16.732415   1.281216   0.265837   0.442149 
Mo  30.656039   4.764808  16.711686   0.672407   0.579077   0.723412 
S   29.743006   3.221187  18.343792  -0.329621  -0.396039  -0.485068 
S   32.499273   4.680710  18.303091  -0.115574   0.475319   0.435476 
S   32.571780   4.815091  15.088690  -0.224524  -0.202051   0.967794 
S   29.731542   3.210560  15.164965  -0.457416  -0.191201  -0.486966 
Mo   0.125113   6.343790  16.797430  -0.447882  -0.612665  -0.302472 
Mo   2.895160   7.964154  16.798086   0.499390   0.035686  -0.523672 
S    1.996371   6.448681  18.388022  -0.313433  -0.995322   0.085820 
S    4.773244   7.909762  18.377451  -0.297187   0.117826   0.333154 
S    4.758122   7.955651  15.195234  -0.153186   0.039245  -0.037126 
S    1.908362   6.405293  15.193700   0.752387  -0.190706  -0.205179 
Mo   5.699987   6.362500  16.780181   0.050600  -0.900331   0.721254 
Mo   8.507612   7.876689  16.832867  -0.536078   0.808247  -0.148458 
S    7.572631   6.348149  18.469688  -0.474553  -0.427386  -0.802165 
S   10.325113   7.865509  18.425789  -0.160211   0.244939   0.435248 
S   10.395927   7.829106  15.265721  -0.414570   0.849770  -0.208831 
S    7.525503   6.331760  15.240845   0.338434   0.211915  -0.536121 
Mo  11.227438   6.270904  16.864484   0.210257  -0.407118  -0.150826 
Mo  13.982907   7.942710  16.956954  -0.040000  -0.365285  -0.327274 
S   13.017120   6.290602  18.475978   0.233743   0.367628   0.808036 
S   15.837636   7.902119  18.546953  -0.174648  -0.258155   0.005021 
S   15.870472   7.891484  15.356906  -0.683334  -0.259444  -0.156309 
S   13.157411   6.286926  15.358095  -0.508975   0.697355  -0.529991 
Mo  16.753668   6.261624  16.959803  -0.239102   0.654328  -0.296578 
Mo  19.473475   7.921297  16.927776   0.158525  -0.383919   0.369363 
S   18.628526   6.246659  18.511787  -0.221541   0.146288   0.020891 
S   21.358175   7.876260  18.503428  -0.118120   0.403180   0.209981 
S   21.270181   7.941306  15.313848   0.565376   0.144300   0.099537 
S   18.567103   6.332685  15.325141  -0.200675   0.083741  -0.211664 
Mo  22.285963   6.359967  16.877673   0.131276  -0.256282  -0.120976 
Mo  25.163805   7.970610  16.873593  -1.328765  -0.455313  -0.420383 
S   24.208505   6.418563  18.478042  -0.399935  -0.432166  -0.259424 
S   27.009252   7.940660  18.448001  -0.120097  -0.382482  -0.117473 
S   26.925091   7.953749  15.189817   0.364100   0.049744   0.454283 
S   24.135278   6.390943  15.253092   0.135501   0.107636   0.479171 
Mo  27.886757   6.338201  16.780066  -0.535206   0.797453   0.036980 
Mo  30.613251   7.970697  16.819706   0.648635   0.440156   0.066195 
S   29.687952   6.354710  18.349616   0.620877  -0.422752   0.430298 
S   32.472268   7.898916  18.426018   0.076067   0.270332   0.099000 
S   32.527217   7.979199  15.261825  -0.262781   0.214121   0.031281 
S   29.772204   6.388970  15.221942  -0.567682   0.165379  -0.885628 
Mo   0.144003   9.502135  16.863483  -0.078720  -0.252285  -0.335130 
Mo   2.918773  11.097566  16.853128  -0.109762   0.696584  -0.613802 
S    2.026429   9.487622  18.460548  -0.305119   0.292541  -0.150051 
S    4.814572  11.167194  18.323219  -0.353253  -0.484935   1.594495 
S    4.779572  11.211492  15.231239  -0.069999  -0.207766   0.409263 
S    1.995257   9.523502  15.173703  -0.338321   0.507388   0.661617 
Mo   5.666921   9.522066  16.822011   1.164648   0.360082  -0.568299 
Mo   8.447501  11.104142  16.895391  -0.106262   0.277147   0.268207 
S    7.560216   9.459779  18.472930  -0.418243  -0.017171  -0.516980 
S   10.323099  11.177344  18.469285  -0.285486  -0.526962   0.220104 
S   10.242621  11.144290  15.340864   0.724353  -0.068298  -0.693467 
S    7.556363   9.547832  15.235783  -0.050813  -0.308095   0.424816 
Mo  11.215173   9.526398  16.879956  -0.118814  -0.223722   0.460966 
Mo  13.971609  11.099207  16.943923  -0.463002   0.653597  -0.347594 
S   13.011418   9.543728  18.567001   0.086364  -0.171629  -0.477041 
S   15.817791  11.138535  18.570937  -0.181056  -0.564863  -0.370392 
S   15.709577  11.143119  15.336934   1.053706  -0.284108  -0.121674 
S   13.018897   9.539541  15.326193   0.608267  -0.121327  -0.105106 
Mo  16.698789   9.489660  16.919207   0.154352   1.095058   0.611488 
Mo  19.532787  11.113655  16.993871  -0.514890   0.417339  -0.675065 
S   18.541908   9.531218  18.513945   0.183210  -0.253883   0.446329 
S   21.415516  11.185141  18.508616  -0.110041  -0.589943   0.406254 
S   21.346444  11.111807  15.329452  -0.098204  -0.100685   0.066288 
S   18.519931   9.516665  15.364690   0.539260   0.454537  -0.222160 
Mo  22.280902   9.517449  16.938867  -0.035617  -0.004211  -0.980609 
Mo  25.058633  11.140597  16.890113   0.190979  -0.191971   0.111529 
S   24.112642   9.484264  18.488196   0.774673   0.422132   0.085662 
S   26.940512  11.119298  18.489483  -0.305213   0.007743  -0.244783 
S   26.858837  11.109357  15.283581   0.429026   0.624410  -0.028876 
S   24.181660   9.535025  15.281755  -0.671014   0.065829   0.369357 
Mo  27.831495   9.547124  16.852922   0.783688   0.020864  -0.297879 
Mo  30.621945  11.162117  16.880338   0.844288  -0.489239   0.629785 
S   29.686793   9.550984  18.467462   0.071219  -0.096211  -0.311753 
S   32.500209  11.053771  18.499702  -0.126400   0.400716   0.067948 
S   32.536266  11.148187  15.344045  -0.142058   0.044857  -0.284152 
S   29.709201   9.637125  15.237998  -0.237737  -0.430866   0.159385 
Mo   0.149936  12.649526  16.924621   0.029416   1.120699   0.039118 
Mo   2.908026  14.353887  16.941133   0.009209  -0.658939   0.504306 
S    2.009183  12.656558  18.524014   0.018935   0.116491  -0.349029 
S    4.764510  14.336164  18.556480  -0.026298   0.410079  -0.314403 
S    4.727992  14.348389  15.328045  -0.003153   0.529004  -0.273954 
S    2.017038  12.773163  15.300068  -0.383815  -0.304443   0.374115 
Mo   5.701129  12.821390  16.889708   0.261599  -0.950458  -0.469894 
Mo   8.455091  14.350181  16.889348   0.237329  -0.125565  -0.531950 
S    7.581955  12.728161  18.476420  -0.432378   0.067441   0.242732 
S   10.253225  14.305031  18.479150   0.739831   0.589448   0.016582 
S   10.333647  14.360766  15.280277  -0.229295   0.215128   0.254303 
S    7.556887  12.726274  15.310581  -0.150568   0.160438  -0.191320 
Mo  11.238976  12.752983  16.882554   0.285268   0.215908   0.119270 
Mo  14.046359  14.376395  16.968213  -0.735566   0.188807  -0.794705 
S   13.148967  12.692584  18.509464  -0.810174   0.632121   0.083725 
S   15.890884  14.366005  18.536963  -0.152915   0.110499   0.314876 
S   15.873142  14.421507  15.340766   0.039157  -0.649993   0.369673 
S   13.089733  12.824075  15.274688   0.231428  -0.451682   0.959342 
Mo  16.698966  12.704790  16.961010   1.097143   0.814366  -0.453033 
Mo  19.652186  14.343507  17.006714  -1.824423   0.382689  -0.203361 
S   18.575624  12.742926  18.607071   0.318517  -0.090205  -0.701320 
S   21.529453  14.385652  18.524679  -0.242852  -0.567875   0.151123 
S   21.387755  14.333379  15.344631   0.214989   0.330635  -0.231541 
S   18.623975  12.768827  15.424371  -0.100823  -0.262757   0.100563 
Mo  22.314023  12.709246  16.869222   0.698351   0.846744   0.972258 
Mo  25.125739  14.360936  16.886154  -0.473665  -0.399245   0.014477 
S   24.256383  12.766473  18.478614  -0.941923  -0.212545  -0.013112 
S   26.917959  14.244533  18.517719   0.338853   0.755320  -0.152853 
S   26.961534  14.339285  15.276344   0.167431   0.306907   0.397347 
S   24.117659  12.744598  15.264796   0.559850   0.051474   0.315999 
Mo  27.862310  12.730212  16.884618  -0.244055  -0.317063  -0.338781 
Mo  30.697004  14.330020  17.024801  -0.502195   0.315745  -0.351584 
S   29.660358  12.710602  18.502915   0.468526  -0.095676   0.496239 
S   32.582048  14.352524  18.538752   0.074178  -0.203984   0.299512 
S   32.535396  14.360624  15.418331   0.104662  -0.178234  -0.154779 
S   29.779841  12.805538  15.368698  -0.351176   0.142068  -0.562539 
Mo   0.139362  15.970345  16.930460   0.191873  -1.001977  -0.042531 
Mo   2.867759  17.553069  16.904574   0.172982  -0.117465  -0.277271 
S    1.942033  15.925898  18.565942   0.412500   0.351049  -0.479920 
S    4.726621  17.612601  18.458305   0.288984  -0.336208   0.395130 
S    4.772973  17.577984  15.361285  -0.325979  -0.112379  -0.616869 
S    2.014143  15.889078  15.316847  -0.435127   0.576759   0.102218 
Mo   5.675233  15.947992  16.909386  -0.011345  -0.038382   0.568406 
Mo   8.437665  17.516538  16.887716  -0.142453   0.826029   0.530097 
S    7.555637  15.916347  18.508106  -0.379255   0.140612  -0.084969 
S   10.267926  17.594876  18.509355   0.516043   0.050225  -0.370453 
S   10.264735  17.629287  15.340294   0.765764  -0.083314  -0.122319 
S    7.488091  15.943872  15.288258   0.217614  -0.243010   0.050127 
Mo  11.224053  15.987893  16.896336  -0.167205  -0.390849   0.400549 
Mo  14.032053  17.584768  16.905797  -0.106312   0.281108   0.981709 
S   13.023646  15.958095  18.541461   0.486305   0.210703  -0.363889 
S   15.917404  17.597533  18.490795  -0.277781   0.130869   0.343387 
S   15.876037  17.561584  15.300648   0.317581   0.142752   0.454694 
S   13.103344  16.020907  15.342449  -0.089039  -0.533949  -0.002045 
Mo  16.827192  15.981305  16.961432  -0.068323  -0.334851  -0.647185 
Mo  19.676191  17.619945  16.873386  -0.746048  -0.448194   0.954140 
S   18.666867  15.976030  18.558119   0.557661   0.395922  -0.469212 
S   21.494530  17.562900  18.524041  -0.234269   0.557852  -0.411691 
S   21.502605  17.580848  15.267594  -0.204454  -0.043961   0.016989 
S   18.666567  15.950713  15.356882   0.406357  -0.077337   0.368888 
Mo  22.366495  15.978962  16.910206  -0.136314  -0.275240  -0.484450 
Mo  25.163934  17.545633  16.962179   0.298747   0.293128  -0.180812 
S   24.136421  15.955238  18.510398   0.942614  -0.140946   0.198152 
S   27.004563  17.552187  18.603997  -0.099982   0.037284  -0.611326 
S   27.046272  17.519729  15.340516  -0.394907   0.272469   0.236790 
S   24.234889  15.984335  15.355657  -0.169758  -0.000532  -0.566400 
Mo  27.880603  15.948997  16.953367   0.077633  -0.918592   0.399710 
Mo  30.699117  17.518346  16.980848  -0.495300   0.583049  -0.047320 
S   29.704475  15.941642  18.572022   0.249959  -0.067931   0.128387 
S   32.485353  17.559415  18.540432   0.734290   0.471981   0.196578 
S   32.532492  17.533227  15.348232  -0.351563  -0.043704  -0.249861 
S   29.779531  15.914058  15.437968  -0.131299   0.000445  -0.493764 
Mo   0.061918  19.163949  16.837639   0.652360  -0.401888   0.417881 
Mo   2.901934  20.761813  16.816946  -0.130271  -0.145836   0.149412 
S    1.951729  19.194998  18.414876  -0.238051  -0.041338   0.279585 
S    4.744551  20.774473  18.417691  -0.020242  -0.064794   0.407085 
S    4.822661  20.771145  15.244161  -0.218147  -0.250778   0.274514 
S    1.932002  19.134638  15.252249   0.291700  -0.013532   0.202794 
Mo   5.744012  19.170035  16.884537  -1.067779   0.171189   0.420794 
Mo   8.440671  20.733916  16.887282   0.434247   0.517015   0.984333 
S    7.559024  19.130735  18.529448  -0.149953   0.016830  -0.361781 
S   10.275253  20.759758  18.525717   0.124021   0.384989  -0.020273 
S   10.289348  20.782302  15.338453   0.438157   0.335167  -0.085507 
S    7.531346  19.168381  15.306074   0.339796  -0.453363  -0.497065 
Mo  11.288974  19.262550  16.934606  -1.202352  -1.422787   0.290778 
Mo  14.102375  20.773352  16.963282  -0.363551   0.713704   0.186815 
S   13.149604  19.243731  18.512914  -0.123997  -0.702538   0.445385 
S   16.030227  20.800682  18.497273  -0.347140   0.149716   0.261151 
S   15.935808  20.774819  15.412758   0.042132   0.130612  -1.008871 
S   13.097125  19.224719  15.370707   0.420402  -0.143500  -0.527676 
Mo  16.876667  19.171589  16.909039   0.397136  -0.006467  -0.115658 
Mo  19.647653  20.908272  16.869163  -0.500370  -1.247447   0.105910 
S   18.745909  19.278040  18.490087   0.213570  -0.254314  -0.418439 
S   21.453070  20.840394  18.497814   0.130265  -0.286837  -0.186586 
S   21.485293  20.813757  15.283082  -0.210631  -0.415633  -0.432941 
S   18.757064  19.232919  15.292249  -0.333610  -0.065760   0.254665 
Mo  22.369365  19.183471  16.862448   0.801494   0.212815   1.025237 
Mo  25.206280  20.783711  16.907174  -0.055725   0.153391  -0.425260 
S   24.264428  19.198257  18.502921  -0.409284   0.014897  -0.116592 
S   27.084423  20.853408  18.518147  -0.409025  -0.270921  -0.177266 
S   27.053033  20.730349  15.319252  -0.191026   0.087090   0.133869 
S   24.305788  19.161799  15.334307  -0.253659   0.017602  -0.007137 
Mo  27.950542  19.143935  16.955926  -0.191855   0.257742   0.255087 
Mo  30.668429  20.789574  16.853890  -0.087284  -0.132236   0.258086 
S   29.816913  19.252330  18.545614  -0.204430  -0.531340  -0.281679 
S   32.478026  20.762749  18.460058   0.196549   0.624912   0.060157 
S   32.509349  20.752644  15.209052  -0.291795   0.211027   0.527899 
S   29.767436  19.057913  15.352660   0.049356   0.332002  -0.111659 
Mo   0.021790  22.383142  16.819018   1.143353  -0.614832  -0.205018 
Mo   2.900478  23.954400  16.851451  -0.753659   0.582863  -0.464164 
S    1.907822  22.393056  18.407965   0.043757  -0.310226  -0.021200 
S    4.758272  23.993099  18.413266   0.041473   0.030859   0.198223 
S    4.691306  23.936970  15.283925   0.882519   0.044849  -0.458118 
S    1.936197  22.343178  15.275505  -0.028551   0.216620  -0.235687 
Mo   5.715425  22.359795  16.874745  -0.969385   0.622234   0.016900 
Mo   8.501570  23.973046  16.901908  -0.551341  -0.130938  -0.024068 
S    7.514964  22.375555  18.497157   0.241161  -0.071675  -0.000612 
S   10.291881  24.011259  18.531724   0.380228  -0.187119  -0.145370 
S   10.296445  23.931631  15.322188   0.574112  -0.043356  -0.305726 
S    7.547374  22.406135  15.361488   0.186239  -0.454493  -1.031544 
Mo  11.265279  22.391194  16.964548  -0.486328  -0.418163  -0.456628 
Mo  14.036208  23.997573  16.931849   0.418458  -1.016093  -1.209884 
S   13.112737  22.407238  18.571476   0.263109  -0.140491  -0.406710 
S   15.914576  24.047546  18.448287   0.414617   0.297339   0.144201 
S   15.906285  24.028186  15.279867  -0.444319  -0.597729  -0.051883 
S   13.137682  22.298871  15.337739  -0.138984   0.532473   0.428882 
Mo  16.869186  22.460693  16.894563  -0.351667  -0.619160  -0.029784 
Mo  19.680385  24.057423  16.734642  -0.947037  -0.156241   0.931030 
S   18.741082  22.549250  18.417790   0.200990  -0.025575   0.207153 
S   21.543872  24.094914  18.376905  -0.448183  -0.331545  -0.053867 
S   21.463977  23.975545  15.195325   0.821890  -0.111019  -0.375059 
S   18.629935  22.420985  15.250641   0.497338   0.115693  -0.351055 
Mo  22.367916  22.357486  16.853221   0.847672   1.596752   0.016918 
Mo  25.202256  24.088297  16.805952  -1.515343  -0.760812  -0.125081 
S   24.270278  22.431949  18.398322  -0.094192   0.269970   0.210522 
S   27.014085  24.039285  18.421091   0.013700   0.811010  -0.101587 
S   26.966580  24.016633  15.211879   0.442627  -0.112552  -0.179012 
S   24.206279  22.400412  15.244954   0.597545  -0.166398   0.550942 
Mo  27.899951  22.439429  16.871232   0.665998  -0.423181  -0.443318 
Mo  30.654790  24.009435  16.728119   0.272602   0.914304  -0.508571 
S   29.809738  22.561007  18.439637  -0.397025  -0.849012  -0.410613 
S   32.480051  24.110705  18.354356  -0.048212  -0.249213   0.043908 
S   32.581523  23.978814  15.158170  -0.653917   0.010508   0.088821 
S   29.692192  22.282271  15.230348   0.280618   0.703484  -0.123380 
