288
Lattice="33.325677 0.034977 0.030848 0.026914 25.6586 -0.000664 0.027074 9e-05 30.509506 " PBC="1 1 1" Properties="species:S:1:pos:R:3:force:R:3" Energy=" -5.285209"
Mo   0.042132  -0.098156  16.890307  -0.889100   0.247437  -0.542933 
Mo   2.860006   1.544781  16.714462  -0.969098  -0.013445   0.844224 
S    1.921617  -0.026637  18.373301   0.418731   0.026938   0.241156 
S    4.718802   1.567428  18.316666  -0.282244  -0.073069   0.041458 
S    4.635008   1.514797  15.108827   0.384195   0.091876  -0.366318 
S    1.784129  -0.028595  15.188711   0.249593  -0.335242   0.038345 
Mo   5.579381  -0.042364  16.743945   0.009183  -0.790397  -0.525258 
Mo   8.291151   1.489484  16.715254   0.807559   0.137761  -0.630116 
S    7.471194  -0.123048  18.319931  -0.425208   0.016430   0.138079 
S   10.168578   1.588814  18.252150   0.216430  -1.062420   0.350186 
S   10.080563   1.451258  15.053144   0.569936   0.008954   0.531403 
S    7.389775  -0.112171  15.107389   0.172726  -0.413873   0.402954 
Mo  11.106415  -0.111277  16.697012  -0.338770   0.036185  -0.578058 
Mo  13.859381   1.509791  16.586841   1.254306   0.392754  -0.168114 
S   13.011443  -0.036685  18.216126  -0.247540  -0.109555   0.399093 
S   15.754003   1.491847  18.200170  -0.329455   0.182413   0.132781 
S   15.835647   1.576959  15.078394  -0.480933  -0.507713  -0.138819 
S   12.923209  -0.115702  15.020648   0.135309  -0.095044   0.400934 
Mo  16.765108  -0.082529  16.648003  -0.470648   0.251145   0.001304 
Mo  19.536621   1.565658  16.707946  -0.827606  -0.031169   1.062472 
S   18.498204  -0.019432  18.295139   0.550204   0.189635   0.421651 
S   21.262807   1.460393  18.407192   0.282825   0.821533   0.058468 
S   21.401727   1.556035  15.224789   0.516003  -0.089366  -0.204510 
S   18.714150  -0.035622  15.172125  -0.444974  -0.538825  -0.661004 
Mo  22.299588  -0.087161  16.857310  -0.619311   0.487822  -0.086127 
Mo  24.983276   1.567981  16.976446   1.205207  -0.446814  -0.033680 
S   24.087724  -0.070767  18.530406  -0.056582  -0.082920   0.004225 
S   26.815469   1.617685  18.654727   0.047340  -0.264999  -0.881053 
S   26.888055   1.595217  15.352828  -0.347635  -0.301235   0.734875 
S   24.145917  -0.112281  15.316232   0.490568   0.415709   0.218675 
Mo  27.810069   0.002586  17.019720  -0.978216  -0.351440  -0.216421 
Mo  30.556546   1.550719  16.947507  -0.362639   0.454522   0.086984 
S   29.627191   0.052455  18.607600   0.233255  -0.549362   0.168414 
S   32.451018   1.544098  18.473444   0.192341   0.312504   0.361506 
S   32.317403   1.495273  15.334550   0.784750   0.406687  -0.231452 
S   29.597521  -0.086947  15.429994  -0.044630   0.679688  -0.757090 
Mo   0.040996   3.120969  16.827417  -0.188623  -0.475402   0.390442 
Mo   2.807170   4.742930  16.763354  -0.985754   0.498621   0.342802 
S    1.914404   3.122250  18.355615   0.317057  -0.149609   0.009743 
S    4.658346   4.686677  18.251331   0.576925   0.278330   0.897048 
S    4.578365   4.797239  15.193794   0.530268  -0.343306  -1.014054 
S    1.898709   3.161623  15.162536  -0.465830  -0.156745   0.018616 
Mo   5.599628   3.118715  16.660434  -0.391221   0.120575   0.567626 
Mo   8.341381   4.681939  16.650734  -0.435335   0.568712   0.451386 
S    7.443947   3.112597  18.291289  -0.252330   0.044238   0.003050 
S   10.179786   4.629344  18.203231   0.341323   0.904340   0.314688 
S   10.148192   4.737662  15.045876   0.399171  -0.305090  -0.049487 
S    7.421224   3.093026  15.097904  -0.009894  -0.137430  -0.553272 
Mo  11.092125   3.078422  16.639686   0.417460   0.567973  -1.319146 
Mo  13.901170   4.776700  16.619923   0.189719  -0.175406   0.131133 
S   13.029533   3.158657  18.155350  -0.634620  -0.433924   0.430581 
S   15.768370   4.750811  18.283308  -0.716099  -0.251923   0.318710 
S   15.799918   4.787302  15.107378   0.037005  -0.015693   0.004708 
S   12.952839   3.109857  14.995979  -0.085264   0.297215   0.339447 
Mo  16.696195   3.153682  16.701412   0.089417  -0.042589  -0.262554 
Mo  19.429010   4.813224  16.743102   0.398722  -0.709257   0.419000 
S   18.525608   3.124174  18.301307   0.168498   0.354323   0.034181 
S   21.275030   4.836866  18.362739  -0.619746  -0.674177   0.615837 
S   21.387911   4.767272  15.194075  -0.541159   0.070033   0.427290 
S   18.553677   3.132847  15.105114   0.355948   0.482076   0.300935 
Mo  22.216660   3.161806  16.863722   0.451220   0.047124   0.213370 
Mo  25.002367   4.818121  16.925929   0.574758  -0.207545   0.524698 
S   24.040457   3.235327  18.510496  -0.301990  -0.269236   0.153946 
S   26.862496   4.780237  18.530240  -0.261804   0.523655   0.236318 
S   26.852526   4.863465  15.342662   0.150851  -1.001513  -0.042230 
S   24.186652   3.182257  15.430419  -0.849890  -0.237797  -1.297604 
Mo  27.752366   3.187679  16.987956   0.357865   0.010718  -0.627334 
Mo  30.599443   4.782124  16.931757  -0.588953  -0.160566   0.388576 
S   29.676459   3.207704  18.518272  -0.233196  -0.180435   0.149409 
S   32.458258   4.740982  18.565095   0.165546   0.049275  -0.796077 
S   32.421606   4.774920  15.395989  -0.073899   0.026128  -1.331150 
S   29.582017   3.144642  15.341578   0.259342   0.219473   0.371566 
Mo   0.022843   6.321823  16.872532   0.105076   1.046051   0.614066 
Mo   2.834621   7.953224  16.800997   0.051933   0.086425   0.179407 
S    1.920643   6.352631  18.437175   0.048922  -0.169393  -0.450299 
S    4.714062   7.926772  18.403367  -0.047255   0.064869  -0.526507 
S    4.670661   7.963621  15.120152  -0.176949   0.078218   0.561867 
S    1.838285   6.394458  15.209344  -0.047655  -0.311491   0.274999 
Mo   5.593473   6.360509  16.732984  -0.697255  -0.398282   0.369005 
Mo   8.342682   7.893844  16.655464   0.935256   0.207154   0.446295 
S    7.438983   6.302975  18.305566   0.434963   0.008816  -0.299050 
S   10.284038   7.997853  18.223913  -0.425659  -0.492775  -0.241861 
S   10.245349   7.989810  15.073883  -0.114783   0.028261   0.320219 
S    7.322755   6.270716  15.085292   0.779246   0.414130  -0.069986 
Mo  11.148274   6.309037  16.620271  -0.176321   0.378149   0.152793 
Mo  13.854210   8.002095  16.616464   0.429884  -0.641751   1.008810 
S   12.900143   6.320709  18.291678   0.551921   0.269274  -0.964502 
S   15.653826   8.046185  18.335154   0.065581  -0.313804  -0.605462 
S   15.761316   7.935670  15.137279   0.116610   0.483949  -0.250837 
S   13.043410   6.370638  14.980843  -0.742437  -0.083174   0.483816 
Mo  16.628564   6.380286  16.783756   0.414541   0.448116  -0.363409 
Mo  19.429295   8.025237  16.698474  -0.007382  -0.478476   1.416076 
S   18.461322   6.457347  18.383184   0.335422  -0.241912  -0.613158 
S   21.233255   8.041446  18.374865   0.073897  -0.143320   0.046774 
S   21.341115   7.959940  15.236115   0.022926   0.139804  -0.669234 
S   18.477627   6.365368  15.201246   0.054316   0.292287  -0.618764 
Mo  22.219009   6.390668  16.855112   0.199263   0.112314  -0.149129 
Mo  25.033871   8.015174  16.869601  -0.806886  -0.152997   0.190074 
S   24.082417   6.395743  18.474980  -0.327565   0.508825   0.193047 
S   26.819372   8.032096  18.533427  -0.014725  -0.220173  -0.331709 
S   26.893637   7.991717  15.287124  -0.225783  -0.078715   0.177026 
S   24.066375   6.354335  15.325637   0.484236   0.448956  -0.562698 
Mo  27.776545   6.390069  16.930112   0.397280   0.545491   0.523709 
Mo  30.544305   7.982989  16.917616  -0.303052  -0.515832   0.347777 
S   29.637789   6.359265  18.564984   0.045132   0.238288  -0.642285 
S   32.396948   8.007385  18.483882   0.435899  -0.156168  -0.023829 
S   32.398081   8.071612  15.348920  -0.061704  -1.133913  -0.689510 
S   29.645386   6.365060  15.338626  -0.015536  -0.022507  -0.116687 
Mo   0.026206   9.567435  16.832361   0.064721  -0.155045   0.436266 
Mo   2.816466  11.173991  16.802192   0.559675  -0.420418   0.769959 
S    1.893977   9.580572  18.394222   0.259374  -0.236734   0.152547 
S    4.759260  11.080292  18.399539  -0.544066   0.496298  -0.244515 
S    4.668342  11.137198  15.208119   0.177198   0.209204   0.183854 
S    1.882247   9.566175  15.239668  -0.009032   0.033762  -0.192171 
Mo   5.653419   9.517496  16.761550  -1.064425   0.151135  -0.300255 
Mo   8.375003  11.141269  16.716014   0.086568   0.652833  -0.448163 
S    7.490593   9.513335  18.280430   0.415696  -0.228468   0.466524 
S   10.235213  11.237461  18.271236   0.310132  -0.245543   0.298073 
S   10.187845  11.210947  15.107445   0.531895   0.341527   0.152882 
S    7.455355   9.533442  15.134142  -0.066940   0.152174  -0.496175 
Mo  11.229005   9.643201  16.681574  -1.614631  -0.479761  -0.467467 
Mo  13.935492  11.234962  16.682197  -0.432857  -0.269189  -0.222505 
S   13.019111   9.569303  18.254673   0.170405   0.483034   0.319780 
S   15.793335  11.216798  18.245841  -0.100605   0.310393   0.616549 
S   15.774877  11.260865  15.105160   0.275887  -0.216587   0.017770 
S   12.987473   9.641758  15.034659   0.364852   0.112347   0.125357 
Mo  16.676450   9.602843  16.721557  -0.253696  -0.084622  -0.008486 
Mo  19.475051  11.236183  16.728728   0.116358  -0.434160   0.068706 
S   18.570453   9.632059  18.324210  -0.479391  -0.116507  -0.215340 
S   21.296462  11.290666  18.361338   0.032078  -0.611314  -0.150719 
S   21.406945  11.185929  15.191442  -0.415005   0.458652   0.133754 
S   18.481921   9.593736  15.158984   0.573815   0.429733  -0.683618 
Mo  22.265231   9.583804  16.796874  -0.651501   0.662210   0.185485 
Mo  24.967655  11.231871  16.844803  -0.090347  -0.520951  -1.115173 
S   24.014260   9.660832  18.429368   0.364073  -0.587320   0.104993 
S   26.731308  11.161776  18.443227   0.464162   0.762495   0.775195 
S   26.901479  11.193955  15.218846  -0.684907   0.273551   0.672290 
S   24.113517   9.575379  15.213841   0.210939   0.105210   0.296733 
Mo  27.682816   9.631049  16.901165   1.173004  -1.114720  -0.398137 
Mo  30.521790  11.136093  16.914922  -0.016272   0.449426  -0.353636 
S   29.550421   9.553471  18.464705  -0.012340   0.137413   0.636464 
S   32.363075  11.089468  18.447612   0.502708   0.764704   0.730681 
S   32.378572  11.215343  15.309628   0.157484  -0.228772  -0.089654 
S   29.592107   9.562418  15.365946  -0.234330   0.041960  -0.737997 
Mo   0.058672  12.722462  16.895086  -1.353726  -0.099934  -0.054201 
Mo   2.805612  14.351393  16.868520   0.738018  -0.033109  -0.922371 
S    1.902394  12.766896  18.446439   0.324576  -0.350651   0.298128 
S    4.754862  14.373292  18.398602  -0.460418   0.016061   0.144705 
S    4.690164  14.347107  15.242960  -0.401445   0.309609   0.090126 
S    1.843791  12.727776  15.253942   0.296003   0.500998  -0.086530 
Mo   5.622822  12.755447  16.816757  -0.258264  -0.230245  -0.826928 
Mo   8.379351  14.434633  16.725531   0.293355  -0.432615   0.326171 
S    7.464024  12.726650  18.312276   0.628195   0.470356   0.411247 
S   10.265836  14.436515  18.256047  -0.233442   0.180637   1.027435 
S   10.248602  14.447738  15.133715  -0.143723   0.032131  -0.217106 
S    7.440696  12.849904  15.146904  -0.070386  -0.648417   0.156370 
Mo  11.170928  12.872860  16.723336   0.106963  -1.207643  -0.602788 
Mo  13.968645  14.375273  16.735496   0.326832   1.808391  -0.130112 
S   13.053848  12.806082  18.327865  -0.381029   0.033202  -0.062451 
S   15.793182  14.469869  18.362097   0.279222  -0.322333  -0.617480 
S   15.860235  14.441224  15.101916  -0.398297   0.279964   0.431131 
S   13.005999  12.911585  15.124015   0.058251  -0.835829  -0.269946 
Mo  16.730147  12.855905  16.701036   0.024909  -0.353176   0.346056 
Mo  19.459683  14.389815  16.716176   0.763253   0.849329   0.448207 
S   18.549563  12.840790  18.325807  -0.129314  -0.332293  -0.001610 
S   21.288425  14.406485  18.399992  -0.424734   0.179307  -0.113471 
S   21.306271  14.511407  15.127466   0.382953  -0.540828   0.612212 
S   18.591910  12.780710  15.112513  -0.217899   0.375692  -0.177432 
Mo  22.250954  12.884449  16.816572  -0.089391  -0.952528  -0.945749 
Mo  24.968346  14.320319  16.817012   0.563305   0.791618   0.172907 
S   24.058397  12.762873  18.494366  -0.268060   0.406918  -0.554852 
S   26.769335  14.389258  18.457299   0.022616  -0.473843   0.485877 
S   26.892063  14.334108  15.276607  -0.197818   0.717220   0.190466 
S   24.062967  12.797555  15.193202   0.044207  -0.079615   0.060209 
Mo  27.753595  12.789609  16.904253  -0.143085  -0.782441  -0.207288 
Mo  30.560968  14.267554  16.898017  -0.429252   0.768045   1.101021 
S   29.561426  12.677137  18.518931   0.273405   0.516446   0.021502 
S   32.363212  14.303619  18.560610   0.432626  -0.054227  -0.588444 
S   32.386927  14.318529  15.302526   0.284186  -0.163379   0.153261 
S   29.599842  12.721800  15.307009   0.098179  -0.044399  -0.119284 
Mo   0.025491  15.844025  16.875143   0.093173   0.524629   0.530072 
Mo   2.844363  17.574676  16.839683  -0.081892  -0.080784   0.529886 
S    1.907252  15.920299  18.452571   0.059737   0.420156  -0.038710 
S    4.751328  17.640298  18.448107  -0.429291  -0.234937  -0.671323 
S    4.687554  17.605930  15.212895  -0.241436  -0.096495   0.113634 
S    1.887381  15.957457  15.233777  -0.036643  -0.248743   0.635681 
Mo   5.617757  16.005154  16.797972  -0.118152   0.295951  -0.166732 
Mo   8.428048  17.643445  16.720186  -0.773572  -0.024554   0.358969 
S    7.469844  16.068892  18.313771   0.456514  -0.308240   0.459702 
S   10.269732  17.572729  18.314268   0.126963   0.541147   0.186365 
S   10.203889  17.606470  15.131794   1.005375   0.299579  -0.228898 
S    7.469656  16.060063  15.185274  -0.362217  -0.243450  -0.484900 
Mo  11.216399  16.038574  16.720303  -0.561021  -0.155350  -0.621899 
Mo  13.983973  17.617728  16.725368   0.126381   0.780909  -0.727797 
S   13.039519  16.070991  18.301914   0.227174  -0.678997   0.236911 
S   15.761626  17.674027  18.342618   0.870070  -0.535791  -0.178756 
S   15.916191  17.696989  15.185644  -0.650083  -0.834602  -0.742915 
S   13.065364  16.027770  15.115336   0.080705  -0.119751   0.250459 
Mo  16.777312  16.059436  16.738863  -1.256720  -0.342868   0.480953 
Mo  19.500305  17.677838  16.812537  -0.009506  -0.792958   0.143211 
S   18.556163  15.996421  18.345453   0.226106   0.086371   0.065345 
S   21.240264  17.589622  18.465864   0.787395   0.157512  -0.075289 
S   21.383322  17.679333  15.319617   0.014156  -0.224307  -0.833959 
S   18.613792  16.098635  15.195845   0.057164  -0.220746  -0.529410 
Mo  22.236955  15.999349  16.835961  -0.043255   0.337375  -0.030882 
Mo  25.041645  17.533713  16.894060   0.607697  -0.031425  -0.345209 
S   24.084479  15.921590  18.419092  -0.286729   0.095551   0.287893 
S   26.870976  17.517390  18.581516  -0.182070   0.372596  -0.433682 
S   26.985758  17.566315  15.366160  -0.735502   0.279733  -0.033876 
S   24.100893  15.956116  15.211701   0.087020   0.295647   0.560325 
Mo  27.775878  15.957936  16.959034   0.055652  -0.489534  -0.774757 
Mo  30.539499  17.546103  16.954457   0.375266  -0.301918  -0.315784 
S   29.582091  15.917015  18.536423   0.605708  -0.151258  -0.049016 
S   32.390988  17.478203  18.485745   0.567662   0.400553   0.242464 
S   32.423976  17.462801  15.383886  -0.286340   0.670974  -0.458753 
S   29.639360  15.921755  15.383612  -0.069012   0.078616  -0.358538 
Mo   0.040797  19.127778  16.876383   0.245861  -0.629462   0.079056 
Mo   2.780188  20.814119  16.794476   0.284166  -0.462005   0.201784 
S    1.924401  19.208834  18.454675   0.049373  -0.414698  -0.438575 
S    4.610889  20.856960  18.375795   0.509202  -0.388712  -0.020212 
S    4.670451  20.800297  15.187995  -0.411321   0.139686  -0.079740 
S    1.884752  19.133236  15.250678  -0.151574   0.209477   0.010406 
Mo   5.596436  19.232450  16.765116   0.381717  -0.369388   0.318364 
Mo   8.425823  20.763931  16.750322  -0.353566   0.602294  -0.726690 
S    7.480840  19.228104  18.323911  -0.065357  -0.346732   0.170334 
S   10.256765  20.751658  18.347985   0.398840  -0.109244  -0.091164 
S   10.274444  20.792668  15.142419   0.235881  -0.204186   0.341248 
S    7.469913  19.227101  15.079789  -0.192710  -0.127188   0.854269 
Mo  11.240427  19.180294  16.735788  -0.230177   0.239507  -0.244071 
Mo  13.989402  20.786612  16.736960   0.145142   0.065013  -0.232326 
S   13.122256  19.205621  18.376891  -0.664315  -0.138289  -0.623427 
S   15.819822  20.761048  18.359094   0.198082   0.317829  -0.394810 
S   15.822580  20.732429  15.102323   0.283376   0.579198   0.479674 
S   13.083099  19.245837  15.058974  -0.235517  -0.464476   0.922469 
Mo  16.807824  19.225805  16.734951  -0.387062   0.444216   1.020159 
Mo  19.612237  20.845972  16.834951  -0.750789  -0.042367   0.154180 
S   18.586605  19.227915  18.423220   0.130939   0.373704  -0.172180 
S   21.401232  20.876578  18.509647  -0.033167  -0.284430  -0.436489 
S   21.488811  20.864796  15.252185  -0.087026  -0.274691   0.387997 
S   18.670734  19.286248  15.181833   0.176953   0.059261   0.033981 
Mo  22.297624  19.212180  16.910709   0.435274   0.515479   0.063342 
Mo  25.149407  20.749343  16.980622  -0.506345   0.197056  -0.580490 
S   24.160111  19.145594  18.485183  -0.271717  -0.131657   0.404868 
S   26.986037  20.774764  18.626049  -0.277995   0.024895  -0.323751 
S   26.943767  20.786117  15.363103   0.335749  -0.262061   0.041032 
S   24.207177  19.182597  15.313175  -0.349747   0.124011   0.319591 
Mo  27.835437  19.187573  17.002226   0.144944  -0.346970  -0.903294 
Mo  30.656791  20.793514  16.921920  -0.062108   0.068174   0.436111 
S   29.697495  19.217059  18.497163   0.207539  -0.299870   0.692582 
S   32.537771  20.716054  18.541798  -0.689222   0.557706  -0.292354 
S   32.458811  20.763756  15.308627  -0.073901  -0.170504  -0.131261 
S   29.695978  19.168351  15.329886  -0.253306   0.224564   0.376237 
Mo  -0.024324  22.363241  16.871106   0.728415  -0.083078  -0.084509 
Mo   2.764808  24.000282  16.771286   0.310700  -0.333311  -0.072915 
S    1.866027  22.407972  18.416944   0.134270   0.099451  -0.171155 
S    4.704960  23.994985  18.297517  -0.364279   0.087908   0.506607 
S    4.588923  24.000615  15.164496   0.425145  -0.252290   0.247840 
S    1.796014  22.332379  15.221619  -0.107884   0.675702  -0.063915 
Mo   5.611162  22.371781  16.773187   0.157286   0.629213  -0.591248 
Mo   8.412822  23.925721  16.747222  -0.663324   0.466679  -0.776884 
S    7.494583  22.337632  18.390264  -0.128086   0.139727  -0.532056 
S   10.203983  23.974683  18.344722   0.673562   0.030234  -0.037072 
S   10.234547  23.873302  15.088246   0.101393   0.460658   0.735093 
S    7.454942  22.379989  15.119658   0.040580  -0.232646   0.600909 
Mo  11.201213  22.372200  16.776982  -0.544713   0.104557  -0.934723 
Mo  13.988691  24.016624  16.661654   0.199726  -0.309435   0.131932 
S   13.025755  22.399610  18.301539   0.784815   0.442836   0.248957 
S   15.835911  23.995371  18.275077  -0.053924   0.064271  -0.077089 
S   15.940164  23.948293  15.084918  -0.588694  -0.011880   0.048115 
S   13.073100  22.413823  15.148310  -0.391093  -0.415359  -0.184607 
Mo  16.786021  22.356904  16.739432  -0.205187   0.171804  -0.108583 
Mo  19.567290  23.999824  16.826158  -0.849294   0.304052  -0.697255 
S   18.586114  22.445397  18.413056   0.093213  -0.388621  -0.190322 
S   21.308930  24.058076  18.458125   0.651166  -0.434211   0.209467 
S   21.374100  24.046505  15.222242   0.672591  -0.581901   0.206381 
S   18.669959  22.388302  15.178860   0.110930   0.140651   0.375756 
Mo  22.342650  22.444252  16.880287  -0.459735  -0.134354   0.334998 
Mo  25.115788  23.989212  16.968079  -0.341799   0.180472  -0.447293 
S   24.167976  22.333813  18.510655  -0.102120   0.465871   0.355927 
S   26.913741  23.924771  18.517691   0.535939   0.621364   0.555879 
S   26.980058  24.013857  15.346110  -0.085849  -0.037634   0.719458 
S   24.237186  22.413635  15.404775   0.098846  -0.408085  -0.642914 
Mo  27.895967  22.348849  16.958030   0.076747   0.646911  -0.068249 
Mo  30.573694  24.063382  16.986830   0.836396  -0.104276   0.732502 
S   29.774159  22.454903  18.570836  -0.476077  -0.826163  -0.170498 
S   32.471689  23.991864  18.549749   0.005411   0.235254  -0.259749 
S   32.346748  24.059907  15.322344   0.471582  -0.371916   0.285513 
S   29.785247  22.471959  15.374586  -0.759669  -0.710898  -0.096876 
