288
Lattice="33.336369 0.034872 0.03086 0.026833 25.65143 -0.000664 0.027084 9e-05 30.60407 " PBC="1 1 1" Properties="species:S:1:pos:R:3:force:R:3" Energy=" -5.286356"
Mo   0.093315  -0.069144  16.773872  -0.176386  -0.101579   0.214112 
Mo   2.862678   1.557983  16.752006   0.508520   0.114191  -0.437490 
S    1.936713   0.004204  18.384913  -0.342319  -0.030412   0.183610 
S    4.740170   1.573362  18.333838  -0.460063  -0.181675   0.536628 
S    4.760647   1.567280  15.169692  -0.262548  -0.362382   0.095203 
S    1.948889  -0.081132  15.200668  -0.123550   0.088870  -0.212531 
Mo   5.617627  -0.080301  16.806708   0.885946   0.357749  -0.155730 
Mo   8.443739   1.468864  16.882315  -0.193019   0.775967  -0.516122 
S    7.525453  -0.060438  18.443006  -0.888205  -0.524959   0.262157 
S   10.297686   1.497403  18.444197   0.139101   0.090875   0.139902 
S   10.243817   1.508719  15.249097   0.370477  -0.200610  -0.255162 
S    7.524158  -0.157070  15.274991  -0.422156   0.716433  -0.455296 
Mo  11.233521  -0.067662  16.823367  -0.833995  -0.486486   0.316568 
Mo  14.044024   1.500330  16.734327  -0.615134   0.229454   0.563462 
S   13.082912  -0.018765  18.370221   0.117038  -0.130056   0.548200 
S   15.809078   1.556418  18.381810   0.460380  -0.194965   0.119961 
S   15.893443   1.428068  15.165200   0.149520   0.578865   0.127488 
S   13.070391  -0.137486  15.226227   0.046444   0.041677  -0.339722 
Mo  16.765192  -0.065867  16.850063   0.634851  -0.241210  -0.099249 
Mo  19.606385   1.546574  16.789899   0.055519   0.166240  -0.729085 
S   18.644761  -0.008449  18.395288   0.046190  -0.338727   0.125704 
S   21.434575   1.562348  18.364487   0.348023   0.074381   0.080737 
S   21.481941   1.587759  15.151377  -0.299201   0.329989   0.198450 
S   18.633426  -0.049688  15.265710  -0.301639  -0.046221  -0.643042 
Mo  22.366704   0.001170  16.728404   0.254353   0.084200   0.725945 
Mo  25.117667   1.590380  16.714782  -0.444462   0.326131  -0.274885 
S   24.196163   0.010003  18.360575   0.093318  -0.066714  -0.402185 
S   26.967072   1.618006  18.293999  -0.241962  -0.203409   0.109655 
S   26.938241   1.638345  15.102889   0.011067  -0.593238  -0.082190 
S   24.231871  -0.126475  15.146567  -0.037787   0.643919   0.056616 
Mo  27.838138  -0.009749  16.716328   1.062529   0.086184   0.118610 
Mo  30.650680   1.579513  16.746514  -0.039036  -0.529393  -0.206945 
S   29.704712  -0.034655  18.391643  -0.322671   0.501505  -0.732851 
S   32.472187   1.576622  18.332668   0.289970   0.157167   0.607464 
S   32.541434   1.590375  15.209034   0.050388  -0.047403  -0.088592 
S   29.749872  -0.043348  15.142901  -0.329025   0.086248   0.333477 
Mo   0.134728   3.171813  16.785636  -0.319384   0.019586  -0.638372 
Mo   2.811586   4.765655  16.713000   1.380448   0.346226   0.383012 
S    2.047892   3.157649  18.345388  -0.841916   0.108980   0.196157 
S    4.701022   4.804086  18.322552  -0.335133  -0.374620   0.179793 
S    4.732932   4.834810  15.186618  -0.349144  -1.175872  -0.769049 
S    1.956511   3.168780  15.108745  -0.245200  -0.276171   0.373829 
Mo   5.632304   3.158362  16.783510   0.196010   0.244237  -0.032784 
Mo   8.473583   4.697727  16.804517   0.183807   0.150274   0.104543 
S    7.497971   3.162341  18.402543  -0.136025  -0.377307   0.193448 
S   10.363729   4.718158  18.386174  -0.366697  -0.155030   0.094819 
S   10.292462   4.669886  15.232065   0.511301   0.411621  -0.077471 
S    7.518881   3.070462  15.307771   0.102052   0.087457  -0.960774 
Mo  11.250165   3.057876  16.817919  -0.250835   0.767593  -0.165179 
Mo  14.009885   4.655437  16.835008  -0.020933   0.491269  -0.526604 
S   13.093973   3.054499  18.391051   0.004812  -0.072929   0.103671 
S   15.837135   4.575867  18.425043   0.366307   0.827828  -0.027994 
S   15.851772   4.673319  15.202116   0.000973   0.268993   0.289938 
S   13.105421   3.104335  15.196871  -0.319144  -0.047687  -0.191098 
Mo  16.835116   3.105920  16.790786  -1.044516  -0.796409  -0.653256 
Mo  19.594866   4.755858  16.855060  -0.927061  -0.190301  -0.113326 
S   18.652878   3.063165  18.353053   0.158582   0.681521   0.784565 
S   21.413877   4.708412  18.551467  -0.227057  -0.006085  -1.146478 
S   21.359452   4.816853  15.220046   0.337136  -0.239592   0.233273 
S   18.661271   3.165284  15.199311   0.329011   0.000999   0.089608 
Mo  22.367413   3.203405  16.800960  -0.729860   0.232263  -0.380233 
Mo  25.087481   4.793893  16.838267   0.030003  -0.091897  -0.638796 
S   24.191500   3.149566  18.378096   0.259519  -0.268538  -0.057573 
S   26.963673   4.761297  18.382588   0.274223  -0.041337  -0.216377 
S   26.907728   4.787820  15.153721   0.061257   0.567343   0.358698 
S   24.177522   3.359246  15.119319  -0.064097  -1.217273   0.744825 
Mo  27.883848   3.191406  16.697091   0.159436   0.073366   0.599378 
Mo  30.670170   4.774481  16.731210  -0.370909  -0.057293   0.230370 
S   29.752634   3.140793  18.322033  -0.408061   0.468814  -0.031163 
S   32.506036   4.791269  18.421797  -0.164670   0.082718  -0.617239 
S   32.486337   4.787021  15.161692   0.578024   0.235450   0.401680 
S   29.748170   3.155818  15.104839   0.023917   0.173883   0.313795 
Mo   0.051272   6.380320  16.769658   0.627812  -0.130539  -0.211476 
Mo   2.915986   7.980973  16.796856  -0.024584  -0.152870  -0.899614 
S    1.926776   6.354866  18.340484  -0.106606   0.074689  -0.011103 
S    4.776067   7.883948  18.400344  -0.197468   0.008131  -0.182578 
S    4.834808   8.000617  15.217258  -0.600676   0.020128  -0.192991 
S    1.965827   6.405544  15.146483  -0.547525   0.240490   0.335108 
Mo   5.680179   6.320196  16.721636   0.807347   1.074877   0.883298 
Mo   8.429856   7.982332  16.853309   0.424298  -0.391940   0.178426 
S    7.498518   6.250544  18.351503   0.020358   0.691387   0.261699 
S   10.268833   7.900119  18.495836   0.021609   0.180771  -0.521703 
S   10.270095   8.018136  15.242482   0.207425  -0.557072   0.115142 
S    7.659151   6.362096  15.190873  -0.742628  -0.231155   0.119469 
Mo  11.218081   6.369526  16.825142  -0.049090  -0.848639   0.117032 
Mo  14.020298   7.875419  16.933935   0.295108   0.636563  -0.459205 
S   13.111403   6.245788  18.453071  -0.598278   0.039108   0.052750 
S   15.895728   7.882461  18.497264  -0.094662  -0.138261  -0.108544 
S   15.842808   7.962103  15.306736   0.096326  -0.578797   0.092959 
S   13.074404   6.332763  15.280225   0.226726  -0.033898  -0.041217 
Mo  16.784394   6.264936  16.851637  -1.112661   0.359266   0.212825 
Mo  19.478737   7.927115  16.913450   0.789851   0.118767  -0.272120 
S   18.586250   6.302274  18.453968   0.211249  -0.265428   0.401900 
S   21.362021   7.959025  18.489213  -0.384342  -0.427441   0.476722 
S   21.323850   7.927728  15.299024  -0.113109   0.115655  -0.036972 
S   18.553305   6.377416  15.259621   0.712649  -0.434779   0.091111 
Mo  22.221678   6.357772  16.895946   1.029379  -0.812618   0.269029 
Mo  24.986087   7.927110  16.947946   1.128800   0.035268  -0.636627 
S   24.101244   6.222586  18.516161   0.009369   0.814352  -0.247931 
S   26.952099   7.956421  18.455325  -0.218612  -0.361643  -0.250415 
S   26.824141   8.001808  15.290049  -0.034702  -0.218208  -0.059477 
S   24.064890   6.394855  15.276121   0.108464  -0.017707   0.447972 
Mo  27.865682   6.374862  16.785875  -0.414877   0.014351   0.198627 
Mo  30.637088   7.980313  16.803144   0.349612   0.252179  -0.488341 
S   29.762584   6.358169  18.332381  -0.381816  -0.266713   0.423896 
S   32.459117   8.039174  18.418701   0.230574  -0.539462  -0.026767 
S   32.537733   8.069572  15.242287  -0.418909  -0.325984  -0.195769 
S   29.669392   6.432490  15.164259   0.488107  -0.335229   0.143048 
Mo   0.104541   9.580389  16.836885   0.688809  -0.192487  -0.326230 
Mo   2.919795  11.264372  16.875334   0.131376  -1.832607  -1.161052 
S    2.001533   9.542176  18.370975  -0.103588   0.453276   0.382659 
S    4.751947  11.156101  18.492866  -0.076116  -0.306672  -0.126969 
S    4.884457  11.132733  15.237693  -1.226914   0.295905   0.290769 
S    1.965360   9.647333  15.184235   0.304046   0.009291   0.954107 
Mo   5.687894   9.553410  16.871199   0.043524   0.195564  -0.414865 
Mo   8.479875  11.155935  16.834599  -0.182580  -0.146459  -0.017801 
S    7.487553   9.624696  18.430907   0.533844  -0.642772   0.397435 
S   10.288185  11.054802  18.459487  -0.001560   0.426570   0.193117 
S   10.363897  11.112118  15.279999  -0.256581   0.103367  -0.221325 
S    7.563760   9.591985  15.234419  -0.376415  -0.243412   0.223655 
Mo  11.242491   9.500393  16.866230  -0.094213   0.029389   0.390439 
Mo  13.959520  11.137707  16.929116   0.571100   0.441289  -0.427743 
S   13.072484   9.532615  18.474715  -0.081306  -0.408301   0.491581 
S   15.839230  11.173261  18.463400   0.062622  -0.430205   0.511401 
S   15.883448  11.106892  15.362865  -0.611010   0.390376  -0.552647 
S   13.154023   9.496013  15.326903  -0.333093   0.003514  -0.098807 
Mo  16.791922   9.521817  16.900175  -0.465136   0.021356   0.696233 
Mo  19.535618  11.112766  16.897927   0.115482   1.342015   0.087833 
S   18.606397   9.538055  18.494836   0.007304   0.101273   0.498925 
S   21.417700  11.100796  18.469448  -0.417771   0.135760   0.300115 
S   21.399487  11.148249  15.329153  -0.095830  -0.447236  -0.265457 
S   18.628639   9.547765  15.343353  -0.255027  -0.066219  -0.776060 
Mo  22.303416   9.478879  16.903416  -0.260853   1.094401  -0.435385 
Mo  25.091980  11.160930  16.905418   0.158849  -0.856153   0.420959 
S   24.123364   9.514965  18.525587   0.223921   0.342458  -0.067075 
S   27.017853  11.108070  18.499432  -0.533080   0.142016  -0.273192 
S   26.952831  11.214647  15.310726  -0.008732  -0.260521  -0.157401 
S   24.105058   9.538166  15.290399   0.517564   0.051557   0.498893 
Mo  27.867591   9.547200  16.830936  -0.206928   0.490215   0.190894 
Mo  30.717548  11.148806  16.887688  -0.689730  -0.331966   0.312669 
S   29.683308   9.511291  18.419567   0.443326   0.168607   0.171048 
S   32.529104  11.137343  18.493754  -0.076457   0.165118   0.399775 
S   32.549049  11.199291  15.312276  -0.169252   0.195909  -0.503831 
S   29.732774   9.600822  15.230150  -0.129975   0.083658   0.092493 
Mo   0.066393  12.752015  16.903848   0.539990   0.613077   0.145870 
Mo   2.845943  14.365182  16.932136   0.290110   0.386575   0.027171 
S    1.947395  12.716537  18.507257  -0.287401   0.467732   0.022889 
S    4.769268  14.279382  18.512323  -0.323616   0.495886  -0.370255 
S    4.710329  14.388542  15.353142  -0.089172  -0.629523  -0.394012 
S    1.931566  12.830895  15.302756  -0.071895  -0.095388   0.019881 
Mo   5.682633  12.703681  16.879218   0.398699   0.969327  -0.350720 
Mo   8.511982  14.324748  16.859731  -1.402749   0.619270   0.280801 
S    7.541206  12.746991  18.422520   0.143438  -0.093655   0.428257 
S   10.308326  14.320683  18.472400  -0.087147   0.039879   0.381321 
S   10.319655  14.370959  15.304517   0.370895  -0.394764  -0.369027 
S    7.529392  12.750510  15.236921   0.074419   0.154511   0.220000 
Mo  11.202508  12.705247  16.895198   0.267667   0.377318  -0.608959 
Mo  13.985162  14.327439  16.915214   0.187105  -0.116113  -0.680609 
S   12.953778  12.788820  18.523612   0.831924  -0.482195  -0.124848 
S   15.804063  14.304279  18.506743   0.442671   0.056367  -0.034901 
S   15.883474  14.345699  15.257211  -0.431220  -0.041422   0.853386 
S   13.063460  12.701556  15.261205   0.005774   0.214499   0.759340 
Mo  16.803034  12.736826  16.894722  -0.439752   0.611640  -0.372139 
Mo  19.562263  14.387336  16.925001  -0.467345   0.076967  -0.568427 
S   18.628266  12.811674  18.483349   0.078055  -0.597903   0.115860 
S   21.372892  14.336031  18.495512   0.662973   0.275956   0.084466 
S   21.413732  14.339592  15.372563   0.019877   0.168732  -0.812575 
S   18.622686  12.782442  15.227705   0.285483  -0.193676   1.084854 
Mo  22.326647  12.723714  16.899932   0.608389   0.139580   0.303760 
Mo  25.158192  14.328223  16.977275  -0.186781  -0.208554  -0.020671 
S   24.146572  12.701985  18.553769   0.235133   0.112639  -0.459777 
S   27.026706  14.351980  18.594045  -0.008405  -0.217751  -0.541395 
S   26.986842  14.436106  15.423974   0.309586  -0.890170  -0.602644 
S   24.254281  12.751154  15.290805  -0.509552   0.222807   0.577980 
Mo  27.945453  12.727743  16.926190  -0.437377   0.729418   0.639654 
Mo  30.677185  14.385608  16.995467   0.272460  -0.096591   0.216170 
S   29.787053  12.697295  18.526060  -0.047925   0.098906   0.152575 
S   32.509971  14.381634  18.631081   0.232399  -0.024875  -0.812302 
S   32.467546  14.459024  15.344913   0.207547  -0.769646   0.271350 
S   29.813981  12.773786  15.380891  -0.290919   0.280233  -0.631586 
Mo   0.093973  15.938529  16.928071   0.044074   0.238562  -0.016830 
Mo   2.908802  17.593376  16.898118  -0.899130  -0.392287  -0.474885 
S    1.981080  16.018083  18.519504  -0.181723  -0.231554  -0.170303 
S    4.736811  17.585028  18.499963  -0.072661  -0.085965  -0.068311 
S    4.744996  17.514011  15.273633  -0.222611   0.268373   0.010374 
S    1.888714  15.969674  15.287035   0.641357   0.004867   0.655085 
Mo   5.643115  15.959706  16.896514   0.276513  -0.184065   0.767974 
Mo   8.460223  17.565681  16.874822  -0.414192   0.015394   0.669541 
S    7.529645  15.965088  18.441892   0.027306  -0.348276   0.290177 
S   10.246161  17.509254  18.491209   0.660502   0.559737  -0.034841 
S   10.330216  17.421980  15.319889  -0.092667   1.517239  -0.365462 
S    7.519721  15.958476  15.355966  -0.090688  -0.191958  -0.846520 
Mo  11.245131  15.938934  16.914820   0.799934  -0.438864   0.590214 
Mo  14.026680  17.579964  16.955305  -0.290124  -0.186118   0.639736 
S   13.121388  15.918010  18.573744  -0.323936   0.366911  -0.738537 
S   15.930100  17.545208  18.512351  -0.420184   0.306261   0.266596 
S   15.843382  17.573095  15.377199   0.312862   0.033999  -0.193147 
S   13.139395  15.966232  15.322065  -0.262971  -0.020981   0.361556 
Mo  16.747147  15.926064  16.931032   1.271578   0.249612  -0.295273 
Mo  19.581800  17.586415  16.848341  -0.031619   0.182619   0.913385 
S   18.682246  16.081010  18.544233  -0.415080  -0.796637  -0.766560 
S   21.466569  17.570526  18.412543   0.011332   0.220975   0.356722 
S   21.443078  17.570145  15.324976   0.543043   0.046618  -0.438796 
S   18.646390  15.983192  15.286552  -0.449824  -0.365475   0.493408 
Mo  22.414533  15.937858  16.885082  -0.727685  -0.153195   0.394387 
Mo  25.143814  17.570970  16.956051   0.196670  -0.008478   0.401307 
S   24.219914  15.898613  18.507314  -0.165208   0.617067   0.499126 
S   26.990907  17.608107  18.563323  -0.087041   0.111637  -0.244765 
S   26.975404  17.560702  15.353504   0.236675   0.225013   0.379899 
S   24.300434  15.921384  15.346377  -0.185117   0.208579  -0.095668 
Mo  27.944646  15.975240  16.979041  -0.556149   0.357122   0.983097 
Mo  30.625826  17.611014  16.976834   0.519134  -0.426601  -0.665054 
S   29.816179  16.006117  18.611270  -0.518966  -0.178664  -0.215281 
S   32.559871  17.650851  18.436155  -0.549202  -0.427140   1.213840 
S   32.457314  17.550490  15.326909   0.079322  -0.024058   0.108671 
S   29.732298  15.949910  15.409253   0.225646   0.287176  -0.456202 
Mo   0.095630  19.136984  16.832143   0.114481   0.964852  -0.375681 
Mo   2.854016  20.752194  16.894047  -0.144397   0.191339  -0.047117 
S    1.872866  19.188373  18.478740   0.545754  -0.337043  -0.012247 
S    4.702398  20.766146  18.512663  -0.062660   0.112600  -0.507781 
S    4.635049  20.714558  15.310701   0.450616   0.354536  -0.680062 
S    1.969227  19.172822  15.242940  -0.092429  -0.354810   0.454629 
Mo   5.590538  19.171715  16.864572   1.235930  -0.408744   0.710553 
Mo   8.454013  20.779699  16.840923  -0.260755   0.147198   0.522682 
S    7.469137  19.184791  18.488578   0.346285  -0.017971  -0.596118 
S   10.300927  20.805629  18.482438  -0.151529   0.043905  -0.443880 
S   10.341318  20.809073  15.252625  -0.185672  -0.269166   0.274049 
S    7.532886  19.171376  15.345313  -0.480402  -0.170283  -0.879982 
Mo  11.220047  19.190404  16.889919  -0.053286  -0.820804  -0.021248 
Mo  14.045496  20.790937  16.929174  -0.025360  -0.129326  -0.169952 
S   13.036103  19.226202  18.531071   0.295918  -0.377243  -0.297165 
S   15.906017  20.762449  18.535026  -0.128687   0.136344   0.028196 
S   15.909999  20.713784  15.300894  -0.093338   0.536440   0.485183 
S   13.148074  19.160298  15.358348  -0.456711   0.191766  -0.188368 
Mo  16.847128  19.195302  16.942310  -0.307410  -0.947351  -0.345216 
Mo  19.633219  20.763966  16.821116  -0.012973   0.221754   0.187038 
S   18.703868  19.196162  18.522246   0.411330   0.034003  -0.655960 
S   21.528473  20.881263  18.360820  -0.254306   0.018472   0.380438 
S   21.512814  20.831686  15.209766  -0.016250  -0.290172   0.384112 
S   18.632476  19.117123  15.250771   0.112212   0.673487   0.206875 
Mo  22.434979  19.208596  16.879906  -0.879868  -0.138305  -0.380465 
Mo  25.075307  20.852337  16.919494   1.615259  -0.555147  -0.121820 
S   24.203283  19.239994  18.539531   0.009677  -0.366552  -0.100857 
S   26.933753  20.854863  18.511736   0.194615   0.354809  -0.134917 
S   26.977467  20.823396  15.271923  -0.425073  -0.433885   0.437992 
S   24.289810  19.163871  15.364863  -0.167865   0.085116  -0.647703 
Mo  27.862390  19.249988  16.940367  -0.057730  -0.970329   0.216265 
Mo  30.673595  20.797116  16.883273  -0.773721   0.236304  -0.209993 
S   29.725408  19.173022  18.569757  -0.059077   0.972063  -0.437748 
S   32.498284  20.834675  18.451161   0.403581  -0.229425   0.065762 
S   32.509780  20.772518  15.283548   0.027157  -0.028832  -0.223961 
S   29.663839  19.173084  15.367151   0.529738   0.162549  -0.380699 
Mo   0.145025  22.354133  16.811138  -0.761805   0.336694   0.387562 
Mo   2.873773  24.032953  16.850575   0.193435  -1.028648  -0.573339 
S    1.973284  22.361680  18.464443  -0.337947   0.644081  -0.230437 
S    4.698907  24.052414  18.435364   0.250228  -0.407424   0.003286 
S    4.725853  23.962838  15.202454  -0.303840   0.140264   0.327385 
S    1.989608  22.359890  15.243627   0.034004   0.181946   0.278795 
Mo   5.584143  22.372689  16.840244   0.014085  -0.159328   0.042288 
Mo   8.396366  23.957749  16.849226   0.392323  -0.972923   0.189239 
S    7.416064  22.326922  18.403612   0.496502   0.343746   0.213834 
S   10.258824  23.924941  18.433971   0.302801   0.845843   0.034729 
S   10.276975  23.959120  15.288403   0.071323   0.162212  -0.364613 
S    7.433412  22.326273  15.200082   0.344291   0.193194   0.649770 
Mo  11.250693  22.412072  16.856607  -0.112028  -1.066444   0.274805 
Mo  14.036405  23.987218  16.868978   0.374175  -0.735410  -0.035381 
S   13.086034  22.409124  18.494969   0.046578   0.177582  -0.216656 
S   15.928295  24.004725  18.488605  -0.333436  -0.268357  -0.139943 
S   15.940426  23.906300  15.314282  -0.311616   0.106898  -0.088931 
S   13.105607  22.353954  15.267890   0.245367   0.178290   0.362276 
Mo  16.865722  22.336734  16.934690  -0.451349   0.356573  -0.793747 
Mo  19.584831  23.993283  16.793463   0.529262   0.494191   0.922857 
S   18.723575  22.377401  18.458555   0.452381   0.087935  -0.159484 
S   21.428381  24.131029  18.368544   0.344929  -0.581700  -0.142914 
S   21.456630  24.081451  15.192040  -0.298905  -0.519476  -0.339104 
S   18.703552  22.412707  15.263754  -0.530227  -0.807741  -0.187866 
Mo  22.435619  22.492970  16.774013  -0.538145  -0.450872   0.368232 
Mo  25.146764  23.985520  16.789201  -0.022220   0.032650   0.452229 
S   24.209866  22.497275  18.491809  -0.297293   0.064486  -0.503172 
S   26.995048  24.091182  18.362762  -0.073280  -0.217471   0.264571 
S   27.003115  23.872050  15.259441  -0.266430   1.092524  -1.090896 
S   24.310289  22.319605  15.187456  -0.660058   0.647706   0.140544 
Mo  27.919527  22.400020  16.842105  -0.005234  -0.003712   0.829747 
Mo  30.650587  24.022128  16.798700   0.188107  -0.048310  -0.217263 
S   29.753189  22.454521  18.427503   0.028924  -0.266952   0.086851 
S   32.437420  23.988586  18.415110   0.873392   0.299342  -0.246147 
S   32.545089  23.982613  15.233180  -0.084423  -0.021294   0.016943 
S   29.728991  22.456377  15.194102   0.302961  -0.963072   0.500906 
