288
Lattice="33.336032 0.034878 0.030862 0.026838 25.653846 -0.000664 0.027086 9e-05 30.595737 " PBC="1 1 1" Properties="species:S:1:pos:R:3:force:R:3" Energy=" -5.286606"
Mo   0.068861  -0.064462  16.840546   0.243280   0.588195  -0.703461 
Mo   2.893099   1.535317  16.722095  -0.975730  -0.003081   1.152697 
S    1.909762  -0.023089  18.382384   0.560250   0.096812  -0.209056 
S    4.685345   1.563794  18.426959   0.125101  -0.086827  -0.599848 
S    4.708774   1.503501  15.164991   0.391588   0.139852   0.037219 
S    1.862632  -0.037122  15.154748   0.459066  -0.378722   0.469133 
Mo   5.640556  -0.045980  16.835291  -0.818304  -0.431800   0.107028 
Mo   8.340430   1.511532  16.849511   1.050898   0.144459  -0.063067 
S    7.480429  -0.157812  18.452225  -0.055053   0.536041  -0.214963 
S   10.331581   1.551530  18.405832  -0.624262  -0.194059  -0.025954 
S   10.209159   1.556901  15.276561   0.304993  -0.473624  -0.112181 
S    7.407912  -0.060471  15.214514   0.701685  -0.299936   0.200315 
Mo  11.199228  -0.087970  16.826939   0.292001   0.138631  -0.274379 
Mo  13.984164   1.520092  16.753607   0.278895  -0.461748  -0.182058 
S   13.116510  -0.086347  18.415825  -0.383434   0.260729  -0.446129 
S   15.845568   1.547462  18.372725  -0.293777  -0.071050   0.115513 
S   15.866707   1.449965  15.200544  -0.111852   0.266793  -0.018105 
S   13.049099  -0.158722  15.163730   0.045202   0.278149   0.829406 
Mo  16.741889  -0.116399  16.853909   0.246087   0.139701  -0.114613 
Mo  19.577417   1.584201  16.792279  -0.646892  -0.629187   0.474735 
S   18.576420  -0.071852  18.391139   0.684705   0.305204   0.259018 
S   21.415679   1.550224  18.376269   0.158204  -0.223396   0.142624 
S   21.418131   1.610571  15.209607  -0.049666  -0.446682  -0.213136 
S   18.576113  -0.061359  15.253019   0.478407  -0.224332   0.173957 
Mo  22.361740  -0.054502  16.759772  -0.797189   0.638204  -0.301851 
Mo  25.180772   1.558929  16.676978  -0.682039  -0.053399   1.018435 
S   24.234788   0.005267  18.313033  -0.026344   0.107866   0.263705 
S   27.009781   1.570897  18.335943  -0.432981  -0.078036  -0.041833 
S   26.985562   1.524787  15.056611   0.157352   0.386646   0.257599 
S   24.175963  -0.066491  15.144847   0.203037  -0.100277   0.027746 
Mo  27.889760  -0.008707  16.734248  -0.714923  -1.112728  -0.237575 
Mo  30.614915   1.553917  16.747397   0.644211   0.416203   0.450178 
S   29.650291   0.045898  18.342879   0.649419  -0.754113   0.469654 
S   32.454611   1.587813  18.424204  -0.072809   0.310544  -0.454769 
S   32.527847   1.610937  15.267548  -0.221373  -0.481759  -0.414055 
S   29.737041  -0.150524  15.150531   0.250505   0.548610   0.333769 
Mo   0.092847   3.200977  16.782683  -0.327431  -0.741651  -0.160121 
Mo   2.855664   4.733686  16.714190  -0.099858   0.267966   0.309084 
S    1.934144   3.142662  18.350431   0.264081   0.016596  -0.280010 
S    4.682134   4.715232  18.346317   0.171247   0.532762  -0.492295 
S    4.716834   4.687681  15.108052   0.137525   0.554982   0.690804 
S    1.887608   3.091663  15.152050   0.441465   0.462720  -0.127648 
Mo   5.635537   3.118702  16.769198  -0.144983   0.216711  -0.327119 
Mo   8.480458   4.685492  16.804274  -0.721397   0.477726   0.163655 
S    7.412740   3.139053  18.404677   0.555834  -0.048936  -0.063625 
S   10.360307   4.717171  18.400841  -0.357870  -0.138591   0.049395 
S   10.358512   4.733196  15.223884  -0.229569   0.137845   0.091213 
S    7.520884   3.125136  15.155820  -0.144858  -0.202297   0.759109 
Mo  11.276846   3.117954  16.800117  -0.371057   0.154725  -0.037382 
Mo  13.996261   4.690818  16.728540   0.317362  -0.339561   0.748492 
S   13.154768   3.107911  18.367609  -0.324056  -0.067483   0.014886 
S   15.851697   4.751905  18.374257  -0.208275  -0.674237  -0.196422 
S   15.869797   4.728559  15.195089   0.061091  -0.084648  -0.282435 
S   13.054295   3.120279  15.108432   0.154165  -0.436113   0.454575 
Mo  16.803640   3.100296  16.771049   0.000818   0.581929   0.769451 
Mo  19.535674   4.742953  16.820366   0.617550   0.086858   0.701858 
S   18.687762   3.168983  18.457571  -0.674019  -0.475827  -0.691476 
S   21.394229   4.723755  18.439501  -0.133198  -0.226843   0.256767 
S   21.422064   4.738396  15.307968  -0.215648   0.497409  -0.807860 
S   18.647747   3.187691  15.212534  -0.070856  -0.370672  -0.408942 
Mo  22.343627   3.160434  16.821509   0.511454  -0.650374   0.208193 
Mo  25.075663   4.771313  16.799322   0.425180  -0.353279   0.139390 
S   24.226723   3.111183  18.385252   0.123262  -0.012199  -0.446180 
S   27.011883   4.721981  18.330450  -0.521593   0.008929   0.228400 
S   26.956270   4.846640  15.225635  -0.332401  -0.537161  -0.460268 
S   24.179016   3.124765  15.152846  -0.148259   0.691507   0.230838 
Mo  27.891587   3.113201  16.717263   0.100427   1.113880  -0.090341 
Mo  30.635260   4.790860  16.773321   0.345992   0.238359   0.153537 
S   29.724173   3.217438  18.359153  -0.161559  -0.542895  -0.225712 
S   32.509601   4.840855  18.326254  -0.271793   0.072943   0.685867 
S   32.495374   4.842869  15.155391   0.012656  -0.380118   0.331251 
S   29.773471   3.188057  15.179865  -0.313075  -0.216297  -0.526216 
Mo   0.092854   6.405336  16.724452  -0.236419  -0.092806   0.410656 
Mo   2.889358   7.972657  16.762841   0.127327   0.284087   0.745030 
S    1.933282   6.393492  18.318261   0.141442  -0.627021   0.103048 
S    4.758084   7.908927  18.379603  -0.351531   0.313086   0.099237 
S    4.739467   8.059168  15.200620   0.197140  -0.465794  -0.165895 
S    1.887028   6.376295  15.178259   0.991807   0.008851  -0.636874 
Mo   5.667410   6.393514  16.749042  -0.767092  -1.680718   0.290145 
Mo   8.392437   7.957422  16.842042   0.595172  -0.007549  -0.635233 
S    7.498032   6.332238  18.401582  -0.040540  -0.316514  -0.276998 
S   10.238321   7.940024  18.399169   0.323386  -0.189591   0.606573 
S   10.302327   7.918726  15.287789  -0.214694   0.404505  -0.301155 
S    7.499534   6.307013  15.233945   0.629661   0.312308  -0.282630 
Mo  11.242884   6.352623  16.845638  -0.294915  -0.981721  -0.379489 
Mo  14.002265   7.853460  16.863679   0.041859   0.678308   0.089662 
S   13.062981   6.183081  18.411084   0.314212   0.606631   0.112563 
S   15.860185   7.885757  18.442963  -0.174505   0.016473   0.304340 
S   15.868361   7.958973  15.290765  -0.282745   0.075205  -0.244874 
S   13.069259   6.273146  15.201079  -0.144512   0.795590  -0.039914 
Mo  16.746156   6.331742  16.816033   1.297644  -0.137005   0.090605 
Mo  19.541731   7.954500  16.874269  -0.345678  -0.173247   0.557265 
S   18.631939   6.308985  18.441768  -0.513264   0.310011  -0.185584 
S   21.366830   7.898198  18.524864   0.048478   0.404539  -0.445336 
S   21.308463   7.948031  15.285499   1.041862  -0.019811   0.305987 
S   18.660253   6.337489  15.241494  -0.467144   0.385054   0.074333 
Mo  22.314775   6.329117  16.908551  -0.471865   0.657573  -0.256339 
Mo  24.999012   7.943155  16.914907   0.227786   0.099961  -0.181899 
S   24.184679   6.313857  18.495390  -0.267212  -0.274254  -0.015851 
S   26.891704   7.980946  18.427988   0.362624  -0.189417   0.237206 
S   26.768463   8.031133  15.302167   1.023736  -0.032934  -0.265971 
S   24.069196   6.374515  15.277668   0.430379   0.020896  -0.205876 
Mo  27.857688   6.407007  16.810060   0.040251   0.090570  -0.177475 
Mo  30.684687   7.960200  16.773297  -0.356711   0.351558   0.684117 
S   29.678053   6.372614  18.401232   0.557334   0.039631  -0.270478 
S   32.500191   7.991763  18.388545   0.214746   0.153552  -0.114984 
S   32.539578   8.061421  15.177030  -0.130396   0.204122   0.037894 
S   29.748573   6.389068  15.214807  -0.677278   0.106058  -0.478529 
Mo   0.107929   9.617506  16.797370  -0.124677  -0.253197   0.279339 
Mo   2.889491  11.209050  16.856945  -0.617496   0.521031   0.874070 
S    1.938798   9.575915  18.414651   0.253135  -0.211090  -0.248690 
S    4.715497  11.129927  18.436902   0.169253   0.100969   0.543815 
S    4.700390  11.152064  15.270647   0.470389   0.120718  -0.157805 
S    2.016024   9.647997  15.284362  -0.551924  -0.166926  -0.927503 
Mo   5.682544   9.584269  16.858446   0.026366  -0.327420  -0.314163 
Mo   8.464192  11.160826  16.809136  -0.070401  -0.195191   0.826919 
S    7.557962   9.594359  18.472529  -0.335633  -0.206240  -0.528866 
S   10.309460  11.115610  18.473846  -0.186938  -0.021434  -0.224369 
S   10.310028  11.133948  15.285131   0.400341  -0.163062  -0.252037 
S    7.526033   9.597680  15.196974  -0.208848  -0.289785   0.479494 
Mo  11.269013   9.516099  16.886534  -0.585525   0.496357  -0.114482 
Mo  14.043563  11.153693  16.900306  -0.384776  -0.967969   0.145856 
S   13.128570   9.494326  18.518597  -0.066376  -0.114586  -0.715931 
S   15.940941  11.170370  18.549076  -0.328609  -0.265976  -0.782262 
S   15.821504  11.171795  15.316827   0.784684  -0.399811   0.056908 
S   13.103981   9.504777  15.299058   0.176788   0.202898   0.132247 
Mo  16.809792   9.523870  16.927216  -0.528505   0.788738  -0.604447 
Mo  19.550453  11.208993  16.855350  -0.083252  -1.313393   0.256078 
S   18.666384   9.610224  18.510352  -0.022036  -0.399712  -0.479470 
S   21.351592  11.198057  18.500396   0.231377  -0.449604   0.084402 
S   21.412164  11.115515  15.288592  -0.003912   0.664842   0.126364 
S   18.592806   9.500239  15.228719   0.241941   0.632710   0.815668 
Mo  22.292322   9.562275  16.908980  -0.167268  -0.335761   0.091737 
Mo  25.148522  11.112097  16.912875  -0.420219   0.600645   0.203508 
S   24.113838   9.537153  18.519106   0.285897   0.195795   0.010342 
S   27.013583  11.138547  18.532317  -0.199717  -0.026268   0.037512 
S   27.000135  11.200315  15.326199  -0.127508   0.427132   0.027036 
S   24.177356   9.580281  15.316494  -0.559686  -0.080607  -0.033616 
Mo  27.864405   9.595534  16.869863   0.491136  -0.697238  -0.046481 
Mo  30.665537  11.160663  16.898991   0.511386   0.559473  -0.149200 
S   29.757641   9.498368  18.439782  -0.174333   0.007359  -0.149143 
S   32.507287  11.181147  18.514907   0.158710   0.092350  -0.522805 
S   32.533591  11.322391  15.270611  -0.223555  -0.415863   0.475865 
S   29.755472   9.611562  15.253401  -0.460317  -0.115914   0.084362 
Mo   0.098800  12.841249  16.903393  -0.197720  -1.168936  -0.232291 
Mo   2.839346  14.405523  16.882824   0.788507  -0.899138   0.456600 
S    1.905143  12.853172  18.533462   0.499877  -0.627576  -0.623120 
S    4.718835  14.318349  18.445656   0.161973   0.317000   0.256238 
S    4.711406  14.271259  15.312728   0.127087   0.895367  -0.069436 
S    1.960493  12.837720  15.267166  -0.316178  -0.212243   0.243176 
Mo   5.670730  12.715809  16.873863  -0.084645   0.150707   0.351539 
Mo   8.413866  14.382830  16.894417   0.853205  -0.212881  -0.592257 
S    7.573172  12.720797  18.463285  -0.527343   0.088226  -0.057291 
S   10.263345  14.320143  18.508569   0.406460   0.330947  -0.463903 
S   10.339857  14.343858  15.300675  -0.373129   0.442771   0.415796 
S    7.492400  12.804156  15.281982   0.258170  -0.063812  -0.201162 
Mo  11.214932  12.722957  16.885719   0.296661  -0.029708   0.499103 
Mo  13.966951  14.310631  16.871303   0.298909   0.669180   1.029842 
S   13.108856  12.650047  18.489749  -0.595727   0.826860   0.067831 
S   15.829634  14.296680  18.462410   0.100007   0.437466   0.262123 
S   15.836293  14.373789  15.363830   0.122562  -0.235735  -0.914392 
S   13.026425  12.760946  15.282088   0.360850  -0.491960   0.006778 
Mo  16.830736  12.763962  16.887367  -0.595549  -0.595488   0.273837 
Mo  19.507307  14.363020  16.821755   1.064813  -0.037619   0.895518 
S   18.666882  12.795538  18.503040  -0.168860  -0.003292  -0.400202 
S   21.371485  14.442654  18.499566  -0.094413  -0.880604  -0.248408 
S   21.423402  14.364714  15.316073   0.135216   0.079135   0.027689 
S   18.633112  12.728854  15.257008  -0.204488   0.314058  -0.450874 
Mo  22.317495  12.742841  16.933875  -0.083467   0.415931   0.052534 
Mo  25.160926  14.327428  17.006857  -0.155768   0.794537  -0.646967 
S   24.247296  12.696451  18.493484  -0.689178  -0.064342   0.614132 
S   27.034095  14.325028  18.590225  -0.237326   0.654870   0.268994 
S   27.014856  14.335685  15.402758  -0.053714   0.645804   0.300788 
S   24.127461  12.754361  15.371604   1.009088  -0.031252  -0.098599 
Mo  27.952068  12.791305  17.006470  -0.319673  -0.831013  -1.383988 
Mo  30.663001  14.400508  16.941881  -0.453156   0.059359  -0.439742 
S   29.786559  12.753768  18.541120   0.193082  -0.084653   0.143296 
S   32.434660  14.384996  18.518193   0.609516   0.212117   0.790013 
S   32.477481  14.433786  15.343790   0.166730  -0.092342  -0.298995 
S   29.778791  12.780537  15.305554  -0.396936   0.223310   0.580686 
Mo   0.068780  15.939295  16.932249   0.101940   0.669159  -0.222123 
Mo   2.871511  17.580071  16.870842   0.204649  -0.280568   0.639532 
S    1.929550  15.943219  18.498926   0.125064   0.487518   0.095336 
S    4.709894  17.578964  18.469992   0.155551  -0.243100   0.283087 
S    4.740508  17.537458  15.260989  -0.157566  -0.017426   0.263965 
S    1.954496  15.983855  15.336596  -0.559829   0.044014  -0.650172 
Mo   5.663955  15.965237  16.896629  -0.051183  -0.373836  -0.647046 
Mo   8.470892  17.580668  16.887097  -0.500082  -0.159308  -0.716805 
S    7.534815  15.976550  18.473815  -0.306446   0.137088   0.156851 
S   10.288833  17.552872  18.520153   0.230378  -0.059364  -0.346091 
S   10.301313  17.544670  15.252327   0.167363  -0.396617   0.513666 
S    7.516207  15.980304  15.245718  -0.043833   0.043198   0.703927 
Mo  11.302856  15.956449  16.925022  -2.033069  -0.214368  -0.654470 
Mo  14.004407  17.548041  16.967133   0.473793   0.430917  -0.613030 
S   13.049473  15.930749  18.515911   0.679450  -0.294837   0.368024 
S   15.892013  17.550664  18.512941  -0.183122  -0.070477   0.337723 
S   15.833050  17.602907  15.321473   0.071435  -0.227535   0.373078 
S   13.144367  16.005745  15.336081  -0.329505  -0.379016  -0.328382 
Mo  16.806110  15.951775  16.908678  -1.547805   0.320817  -0.028846 
Mo  19.552757  17.548203  16.880190   0.492382  -0.387339  -0.226505 
S   18.593954  15.896209  18.450126   0.716676   0.601408   0.531972 
S   21.438655  17.563447  18.494767  -0.282544   0.420642  -0.424436 
S   21.500130  17.547026  15.289124  -0.524635  -0.130914   0.304798 
S   18.544309  15.944374  15.281527   0.700763   0.372587  -0.381001 
Mo  22.387557  15.956056  16.936640  -0.344137   0.213623  -0.808474 
Mo  25.101166  17.612571  16.940534   0.480550  -0.450415  -0.216150 
S   24.163004  16.008197  18.571864   0.531878  -0.375206  -0.269445 
S   26.924987  17.628169  18.519438   0.223183   0.120466   0.690718 
S   27.019571  17.558128  15.386410  -0.531077   0.029238  -0.114861 
S   24.297470  15.937871  15.368973  -0.341193  -0.104088   0.081718 
Mo  27.939627  16.010953  17.031914  -0.723705  -0.827625  -1.190758 
Mo  30.632682  17.642348  16.915541   0.106764   0.129001   0.691821 
S   29.781726  16.043610  18.554018   0.041582  -0.021192   0.179700 
S   32.443503  17.557459  18.557667   0.542424   0.730876  -0.475191 
S   32.512176  17.598659  15.364228  -0.163540  -0.031898  -0.231981 
S   29.752103  16.033683  15.340515  -0.332901  -0.202840   0.313094 
Mo   0.127176  19.178505  16.867824  -0.493598  -1.035521   1.032284 
Mo   2.799352  20.786035  16.911440   0.974020  -0.056820  -0.634787 
S    1.956839  19.143522  18.506634  -0.323177   0.286439  -0.077298 
S    4.677205  20.782258  18.419186   0.190676  -0.103918   0.484690 
S    4.646527  20.751865  15.249235   0.075731  -0.317843   0.523658 
S    1.946995  19.139769  15.301710   0.031771   0.450832  -0.346413 
Mo   5.627382  19.140754  16.879208  -0.208286   0.646298  -0.699076 
Mo   8.400643  20.791878  16.840375  -0.009005  -0.463092  -0.161484 
S    7.489473  19.183337  18.437345   0.165464   0.052872   0.286581 
S   10.276970  20.721798  18.370269   0.102698   0.428811   0.726831 
S   10.283276  20.705655  15.286453   0.141166   0.277369  -0.211786 
S    7.453384  19.194238  15.272229   0.424412  -0.430386   0.143916 
Mo  11.230528  19.099366  16.871111  -0.469261   0.620436   0.239061 
Mo  13.988914  20.770635  16.884997  -0.087655   0.176942   0.469676 
S   13.090210  19.209879  18.469135  -0.478878  -0.372464   0.607876 
S   15.812083  20.807299  18.523373   0.306823  -0.294157  -0.136555 
S   15.831769  20.728459  15.369991   0.187319  -0.035559  -0.981258 
S   13.034923  19.141415  15.318404   0.747818  -0.070826  -0.152059 
Mo  16.771614  19.170916  16.941118   0.408710  -0.008396  -0.151875 
Mo  19.632488  20.727691  16.819859  -0.116457   0.245699   0.266512 
S   18.684604  19.184780  18.459401   0.024757  -0.184701   0.182494 
S   21.496414  20.875143  18.381639  -0.006107  -0.335882   0.145772 
S   21.522182  20.810842  15.253082  -0.490420  -0.498550  -0.414585 
S   18.618364  19.150039  15.282765  -0.054650  -0.177817   0.094357 
Mo  22.392060  19.185716  16.847642   0.314270   0.045024   0.730914 
Mo  25.112360  20.802794  16.912129  -0.643616   0.320804  -0.599258 
S   24.199743  19.201653  18.559831  -0.326675   0.242994  -0.638161 
S   26.962041  20.925779  18.480717  -0.247843  -0.563997   0.371433 
S   26.892430  20.785677  15.303429   0.521852   0.026795  -0.149031 
S   24.249368  19.186761  15.253335  -0.142854  -0.128434   0.616102 
Mo  27.824313  19.235042  16.938517   0.893172   0.165090   0.005320 
Mo  30.656828  20.812206  16.885247   0.806707   0.017243   0.316510 
S   29.710128  19.331855  18.529718  -0.075153  -0.719005  -0.198575 
S   32.561090  20.831113  18.450468  -0.329384   0.216605   0.069658 
S   32.565728  20.739204  15.259026  -0.394036   0.596086   0.355654 
S   29.673385  19.217089  15.328048   0.087213  -0.103357  -0.040336 
Mo   0.142701  22.407953  16.810866  -0.144720  -0.734819  -0.034779 
Mo   2.878407  23.987277  16.790768  -0.616807   0.949564   0.655795 
S    1.938177  22.513663  18.438138   0.095026  -0.753818   0.280160 
S    4.724153  24.003569  18.412142  -0.117560  -0.134908   0.040380 
S    4.666302  23.985654  15.266021   0.962823  -0.031375  -0.585496 
S    2.014278  22.371025  15.240959  -0.520680  -0.074023  -0.216545 
Mo   5.608845  22.353604  16.828711   0.081629   0.506678   0.012955 
Mo   8.395638  23.923098  16.813423   0.166509   1.481138   0.081663 
S    7.459616  22.371256  18.417415   0.020576  -0.064632   0.327570 
S   10.260624  23.990585  18.396953   0.232856  -0.435046   0.044417 
S   10.254772  24.006618  15.239718   0.364147  -0.640334  -0.019110 
S    7.456077  22.392437  15.260604  -0.028731  -0.494772  -0.640947 
Mo  11.244598  22.358498  16.832899  -0.536705   0.450357  -0.430226 
Mo  14.077344  23.956941  16.854672  -0.786144  -0.003212  -0.753982 
S   13.039272  22.453949  18.456570   0.315889  -0.640578  -0.016630 
S   15.856503  23.918187  18.482911   0.446757   0.319194  -0.054879 
S   15.962722  23.918181  15.271858  -0.508317  -0.114763  -0.195438 
S   13.151576  22.343732  15.256928  -0.423532   0.242256   0.080260 
Mo  16.818921  22.319453  16.878285  -0.100967   0.270927   0.665834 
Mo  19.607108  23.968829  16.864043  -0.803957   0.062982  -0.960107 
S   18.734820  22.317455  18.419768  -0.182324   0.116217   0.244090 
S   21.496575  24.046538  18.387209  -0.245512  -0.021354   0.214107 
S   21.302940  24.026521  15.140810   0.870751  -0.020666   0.478093 
S   18.631226  22.262078  15.267788   0.379951   0.734060  -0.049039 
Mo  22.371506  22.475182  16.754522  -0.313514  -0.323637   0.208540 
Mo  25.145855  24.013782  16.791097  -0.149747   0.010169  -0.971114 
S   24.164020  22.509744  18.376875   0.130729  -0.447503   0.440942 
S   26.970306  24.005018  18.398101   0.099236   0.704265  -0.212262 
S   26.931301  24.022605  15.141706   0.599674  -0.497064   0.662937 
S   24.188139  22.382368  15.174751   0.484371   0.070891   0.543356 
Mo  27.883241  22.420574  16.840168   0.226958   0.202891  -0.740865 
Mo  30.679638  23.991357  16.854487   0.166080   0.389568  -0.515996 
S   29.732803  22.466752  18.474782  -0.036788  -0.329742  -0.174602 
S   32.566759  24.009627  18.439447  -0.626182   0.046120   0.246855 
S   32.598305  24.008946  15.261281  -0.748519   0.033204  -0.142162 
S   29.784173  22.313070  15.287609  -0.406260   0.724485  -0.364701 
