288
Lattice="33.334383 0.03509 0.030852 0.027001 25.650384 -0.000664 0.027077 9e-05 30.419784 " PBC="1 1 1" Properties="species:S:1:pos:R:3:force:R:3" Energy=" -5.284938"
Mo   0.018348  -0.010443  16.748008   0.983756  -0.654504  -0.105620 
Mo   2.856626   1.568120  16.847602  -0.171407  -0.788032  -0.434995 
S    1.888511  -0.080508  18.396261  -0.119682   0.114844  -0.337742 
S    4.673299   1.536182  18.435093   0.253670  -0.008866   0.309514 
S    4.675234   1.534258  15.241984   0.375690   0.157436   0.114170 
S    1.921087   0.018079  15.125701  -0.012312  -0.504171   1.264344 
Mo   5.627076  -0.047798  16.848668  -0.228673  -0.615084  -0.183577 
Mo   8.434883   1.511465  16.795444  -0.505887  -0.547663   0.667677 
S    7.454969  -0.092866  18.494607   0.432250   0.124354  -1.093429 
S   10.258339   1.513594  18.390214   0.521459   0.013708  -0.134182 
S   10.233628   1.537997  15.186614   0.348805  -0.110212  -0.076266 
S    7.436760  -0.053109  15.161705   0.043791   0.110443   0.676939 
Mo  11.214026  -0.057892  16.752113   0.111014  -0.507979  -0.536726 
Mo  13.981609   1.475119  16.723934   0.692580   0.377553   0.105033 
S   13.132347  -0.141757  18.307596  -0.461973  -0.020994  -0.129828 
S   15.940063   1.466745  18.310875  -1.077613  -0.137962   0.304836 
S   15.835969   1.624928  15.155396  -0.101742  -1.038208  -0.370158 
S   13.062715  -0.078509  15.054812  -0.314973  -0.010044   0.754310 
Mo  16.760947  -0.104602  16.687078   0.577188   0.810113  -0.452226 
Mo  19.596379   1.550030  16.753370  -0.638775   0.095575  -0.700726 
S   18.645943  -0.088301  18.264344  -0.353088   0.032651   0.470066 
S   21.368654   1.586003  18.366412   0.255639  -0.222327   0.617251 
S   21.443756   1.481115  15.104336  -0.117881   0.999634   0.579393 
S   18.649644  -0.000768  15.133488  -0.091409  -0.266271  -0.270100 
Mo  22.288869  -0.004474  16.798169   0.393450  -0.866687   0.010406 
Mo  25.065608   1.534642  16.933251   0.848002  -0.033050  -0.655009 
S   24.098853  -0.158906  18.438933   0.278757   0.729137   0.133771 
S   26.915779   1.635747  18.540892   0.269076  -0.546176  -0.918513 
S   26.923557   1.576000  15.238198  -0.585596   0.109723   0.484156 
S   24.146821  -0.024963  15.252071   0.445313   0.077138   0.121817 
Mo  27.747108  -0.023138  16.831104   1.623095  -0.160952   0.220243 
Mo  30.590373   1.606001  16.810020   0.283659   0.778600   0.428359 
S   29.712496  -0.061242  18.302099  -0.474049   0.199112   0.877769 
S   32.503686   1.606264  18.401377  -0.618541   0.015962  -0.053951 
S   32.375015   1.578501  15.207035   0.550652   0.380951  -0.245253 
S   29.673502   0.017316  15.235928  -0.366811  -0.477356   0.060437 
Mo   0.082318   3.142466  16.751083  -0.075447   0.505315   0.163175 
Mo   2.882476   4.829466  16.872014  -0.096334  -0.683402  -0.881125 
S    1.944234   3.172867  18.409706  -0.441827   0.217165  -0.018463 
S    4.749559   4.809737  18.443819  -0.076390  -0.254865   0.010030 
S    4.722450   4.724470  15.252374   0.090981   0.400121   0.283963 
S    2.017753   3.174602  15.260219  -0.392442   0.380466  -0.241596 
Mo   5.617062   3.124904  16.859705   0.736358   0.313549  -0.184103 
Mo   8.455295   4.781773  16.796919   0.292421  -0.846697   0.769111 
S    7.561311   3.112812  18.391854  -0.384111   0.349729   0.075348 
S   10.309479   4.796470  18.422473   0.125657  -0.331643  -0.753173 
S   10.336876   4.633689  15.200722  -0.655486   1.040289  -0.207932 
S    7.535498   3.119140  15.280712  -0.726844   0.311621  -0.522881 
Mo  11.227335   3.101756  16.769684  -0.450355   0.053702   1.600440 
Mo  13.988305   4.688000  16.775978  -0.316230   0.327420  -0.192915 
S   13.118026   3.039167  18.366321  -0.388241   0.374717  -0.060668 
S   15.828554   4.737346  18.373103  -0.035748  -0.470845   0.124880 
S   15.828873   4.694029  15.187890  -0.006310   0.125588   0.067514 
S   13.014543   3.101594  15.178357   0.536176  -0.041263  -0.160424 
Mo  16.768118   3.092735  16.779557   0.531254   0.833669  -0.125400 
Mo  19.483281   4.748950  16.792347  -0.520046  -0.778228   0.029291 
S   18.586921   3.018795  18.416424   0.294937   0.924181  -0.572845 
S   21.331698   4.738849  18.352844   0.330933  -0.124244   0.206047 
S   21.363619   4.729759  15.239862  -0.109440  -0.329202  -0.512352 
S   18.602469   3.088688  15.117612   0.140632   0.623584   0.805507 
Mo  22.352387   3.108999  16.799047  -0.518281   0.737645   0.008656 
Mo  25.119218   4.743995  16.841658  -1.270275   0.346915  -0.407561 
S   24.206551   3.184360  18.470316  -0.707263  -0.181476  -0.000868 
S   26.859372   4.850858  18.397885   1.271273  -0.445408   0.486079 
S   26.912362   4.774667  15.207409   0.297621   0.175102   0.198464 
S   24.244270   3.110143  15.313442  -0.270515  -0.088614  -0.822177 
Mo  27.857995   3.188927  16.830249  -0.547971   0.365035   0.419844 
Mo  30.613571   4.854327  16.845548  -0.102154  -0.458974  -0.471819 
S   29.680319   3.250008  18.451142   0.286859  -0.257833  -0.359878 
S   32.477480   4.820765  18.362342   0.265485  -0.244042   0.429221 
S   32.516833   4.823329  15.174378  -0.327328   0.028927   0.834390 
S   29.685472   3.283334  15.226233   0.154320  -0.468091   0.255522 
Mo   0.054660   6.413102  16.806515   0.861975  -0.111793  -1.041600 
Mo   2.916696   8.030830  16.807949  -0.285876  -0.106677  -0.215947 
S    1.918655   6.430918  18.384757   0.086133   0.286430   0.361903 
S    4.812262   8.060055  18.393144  -0.091047  -0.099913  -0.328872 
S    4.690894   7.906307  15.152778   0.760129   0.374580   0.470114 
S    1.969821   6.412724  15.198820  -0.270997  -0.079525   0.728961 
Mo   5.669957   6.394883  16.834842  -0.142681  -0.546507  -0.550018 
Mo   8.516197   7.982616  16.729888  -0.697196   0.077525   0.137789 
S    7.519933   6.383423  18.403261   0.434798   0.271776  -0.297389 
S   10.352390   8.051916  18.301596  -0.173351  -0.471902   0.180131 
S   10.351693   7.979750  15.103648  -0.426174  -0.299684   0.108385 
S    7.506990   6.326165  15.230610  -0.037079   0.384186  -0.412880 
Mo  11.220176   6.353235  16.738794   0.163044   0.059986   0.470111 
Mo  13.942539   7.973808  16.760604  -0.092874   0.150351  -1.203822 
S   13.124923   6.389332  18.326032  -0.834668  -0.669006   0.207134 
S   15.773647   7.937651  18.361578  -0.008988   0.372498   0.100499 
S   15.780479   7.896924  15.152588   0.019660   0.294278   0.180728 
S   13.013773   6.284297  15.134188   0.688255   0.325610   0.417312 
Mo  16.706897   6.342646  16.789974   0.231435  -0.050321  -0.137474 
Mo  19.526947   7.933917  16.868151  -0.667803   0.248082  -0.971841 
S   18.550541   6.355817  18.428505   0.099120  -0.341520  -0.192157 
S   21.382971   7.966495  18.423741  -0.108609  -0.378180  -0.024329 
S   21.318893   7.929438  15.196770   0.117896   0.367990   0.520858 
S   18.527105   6.373333  15.218482   0.688962  -0.066089   0.132088 
Mo  22.271513   6.330752  16.765185  -0.195870   0.487486   0.847655 
Mo  24.967401   7.963764  16.751870   1.108621   0.617274   0.149092 
S   24.091311   6.353071  18.352061   0.090577   0.119927   0.486817 
S   26.823785   7.964431  18.335213  -0.134640   0.499399   0.495170 
S   26.974080   8.026717  15.161763  -0.996004   0.242526   0.401140 
S   24.124720   6.289311  15.257618   0.142515   0.183504  -1.098292 
Mo  27.805627   6.439337  16.789615   0.715771  -0.865581  -0.054718 
Mo  30.648614   7.982868  16.884077  -0.491381   0.749576  -0.340781 
S   29.632409   6.433696  18.482430   0.150705  -0.169350  -0.602996 
S   32.524117   8.087200  18.407523  -0.088527  -0.386572   0.513430 
S   32.462851   8.043835  15.219080   0.189497  -0.041429   0.406789 
S   29.693359   6.421401  15.215793   0.080463   0.133276   0.470220 
Mo   0.138563   9.609026  16.777123  -0.503630  -0.186502   0.202518 
Mo   2.902700  11.247828  16.806351   0.092399  -0.683029  -1.325976 
S    1.976638   9.631333  18.387752   0.143887   0.044855   0.109058 
S    4.828156  11.169283  18.242335   0.217106   0.185788   0.631435 
S    4.786219  11.161690  15.115845  -0.495949  -0.128568   0.291029 
S    1.969436   9.627919  15.184813   0.291794  -0.058934   0.325319 
Mo   5.792165   9.558878  16.683713  -1.414677  -0.065606   0.348809 
Mo   8.421424  11.268147  16.688884   0.396450  -0.795894   0.020150 
S    7.626851   9.618163  18.331054  -0.242453  -0.002146  -0.452628 
S   10.274829  11.286296  18.263694   0.117797   0.424986  -0.207660 
S   10.244021  11.204910  15.054093  -0.023174   0.150993  -0.112040 
S    7.586497   9.582474  15.091950   0.248632  -0.216952   0.093138 
Mo  11.139381   9.658824  16.687975   1.162089  -0.626229  -0.014307 
Mo  13.962976  11.244538  16.640799   0.561568  -0.807551   0.276647 
S   13.015850   9.669136  18.283721  -0.018617  -0.004655  -0.272114 
S   15.833224  11.183779  18.318316  -0.670670   0.120068  -0.374723 
S   15.833754  11.102244  15.076638  -0.107060   0.295754  -0.003802 
S   12.991739   9.591323  15.102309   0.344262  -0.124407   0.185827 
Mo  16.672955   9.552091  16.744138   0.864607  -0.261801   0.163850 
Mo  19.518131  11.228693  16.804513  -0.149857  -0.661010  -0.168500 
S   18.556873   9.583509  18.369752  -0.172210   0.151724   0.113897 
S   21.323566  11.241613  18.445693   0.062216   0.153091  -0.226730 
S   21.290325  11.160641  15.142051   0.403959   0.311982   0.914049 
S   18.609084   9.578430  15.251084  -0.055518  -0.318834  -0.050478 
Mo  22.195883   9.616940  16.854329   0.465850  -0.405833  -0.680730 
Mo  25.034470  11.188195  16.791371  -0.340083   0.429902   0.503251 
S   24.112908   9.602924  18.404736  -0.159969  -0.174309  -0.172337 
S   26.898359  11.250622  18.401736  -0.152474  -0.253115   0.209950 
S   26.864168  11.198449  15.227391   0.465203  -0.256818  -0.253471 
S   23.985470   9.622153  15.242840   0.502195  -0.339859  -0.330473 
Mo  27.814878   9.617938  16.843392   0.089932  -0.079749  -0.082057 
Mo  30.683285  11.223382  16.846324  -0.371207  -0.124070   0.236113 
S   29.714283   9.647250  18.451444  -0.193706  -0.418491  -0.162355 
S   32.549335  11.252776  18.423379  -0.130301  -0.166435   0.011739 
S   32.489183  11.189140  15.257588   0.286659   0.373160  -0.507861 
S   29.714718   9.610874  15.342315   0.030623  -0.190965  -0.647118 
Mo   0.082904  12.820686  16.778133   0.207888  -0.446191  -0.369768 
Mo   2.828561  14.420231  16.783352   0.521399   0.606562  -0.173083 
S    1.910183  12.807877  18.362578   0.432687   0.293423   0.501997 
S    4.748179  14.453481  18.298422   0.083763  -0.234276  -0.419917 
S    4.693166  14.391513  15.103146  -0.325688   0.131005   0.051609 
S    1.973839  12.849521  15.188269  -0.430186  -0.478529   0.005297 
Mo   5.685552  12.813677  16.669988  -0.590393   0.183671   0.125908 
Mo   8.423483  14.381447  16.559934   0.478051   0.180998  -0.243920 
S    7.498567  12.909329  18.236492   0.255245  -0.469175   0.342195 
S   10.303191  14.440581  18.128591  -0.020653  -0.117783  -0.160427 
S   10.275757  14.429894  14.929339  -0.126557  -0.633925  -0.029433 
S    7.468034  12.734421  15.039526   0.005973   0.445575  -0.340904 
Mo  11.254374  12.824835  16.561619  -0.953345   0.176361   0.407082 
Mo  13.977030  14.424869  16.609713   0.020598  -0.394562  -0.700202 
S   13.055589  12.831843  18.194093  -0.048073   0.318729   0.377594 
S   15.854602  14.424998  18.158911  -0.329286   0.049277   0.505799 
S   15.833125  14.396172  15.061627   0.412179  -0.350627  -0.416850 
S   13.089325  12.807173  14.997089   0.125909   0.109461  -0.126995 
Mo  16.742386  12.737767  16.667803  -0.377800   0.508952   0.079205 
Mo  19.498159  14.431315  16.723073   0.721541  -0.364204   0.502102 
S   18.555853  12.848547  18.287385  -0.202001  -0.053210   0.693189 
S   21.316747  14.455854  18.407366   0.002298  -0.369052  -0.463058 
S   21.364871  14.410802  15.142280   0.220060  -0.092452   0.289360 
S   18.587303  12.759767  15.185767   0.459088   0.212504  -0.890668 
Mo  22.239840  12.826759  16.797400  -0.305378  -0.387670  -0.589228 
Mo  25.102230  14.427209  16.729100   0.322102  -0.547588  -0.515581 
S   24.103310  12.899878  18.322027   0.387897  -0.675126   0.304270 
S   26.979341  14.441047  18.298723  -0.367274  -0.412639   0.409723 
S   27.063886  14.459393  15.153557  -0.814700  -0.874605   0.012401 
S   24.083795  12.746924  15.183585   0.320780   0.531751   0.119843 
Mo  27.871081  12.770047  16.789621   0.620444   0.913267  -0.531704 
Mo  30.659682  14.418184  16.792616  -0.374143   0.152440   0.304236 
S   29.731454  12.799838  18.424583  -0.206357   0.390304  -0.358286 
S   32.483547  14.424245  18.420259  -0.034687   0.000758  -0.133055 
S   32.489889  14.430324  15.196355   0.066769  -0.138144  -0.024659 
S   29.787340  12.781847  15.176977  -0.458607   0.075399   0.553303 
Mo   0.072678  15.977466  16.773210  -0.741797   0.600555  -0.365927 
Mo   2.851289  17.586412  16.790701   0.292516   0.418057  -0.551083 
S    1.832290  16.069210  18.390527   0.928977  -0.679470   0.017637 
S    4.752339  17.572818  18.380582  -0.036342  -0.110064  -0.857050 
S    4.717222  17.697133  15.117294  -0.550898  -0.684313   0.170004 
S    1.908165  16.030279  15.155321   0.164843  -0.187398   0.409647 
Mo   5.665681  16.020689  16.621045  -0.435598   0.129243   1.003596 
Mo   8.416473  17.590099  16.593753   0.076192   0.316181   0.118348 
S    7.558818  15.918935  18.169700  -0.292841   0.703072   0.233296 
S   10.248119  17.604934  18.176507   0.292693  -0.591431   0.005834 
S   10.271053  17.663838  14.930983  -0.544157  -0.223682   0.074250 
S    7.487632  16.030162  15.020246  -0.177518  -0.224759  -0.476829 
Mo  11.165146  16.027125  16.483569   0.311685   0.336823   0.709813 
Mo  13.957602  17.616715  16.476032   1.370877  -0.491154   0.738306 
S   13.011340  16.032835  18.068289  -0.021314   0.386503   0.673372 
S   15.822790  17.606471  18.119169  -0.398048   0.139470   0.018409 
S   15.900240  17.665626  14.913451  -0.134001  -0.677125   0.215480 
S   13.076818  15.990111  14.930730  -0.284884  -0.172018  -0.227846 
Mo  16.787993  16.039114  16.581228  -0.567014  -0.128104  -0.213989 
Mo  19.582594  17.615550  16.755886   0.123695   0.448428   0.295814 
S   18.523828  16.051550  18.246596   0.202870  -0.122467   0.858377 
S   21.389091  17.577689  18.391390   0.204098   0.175807  -0.100445 
S   21.442617  17.604903  15.220295   0.287847   0.217022  -0.302510 
S   18.745606  16.064537  15.184048  -0.567499  -0.143190  -1.607990 
Mo  22.329401  15.969863  16.781798   0.176302   0.490892  -0.033743 
Mo  25.153992  17.586957  16.824726  -1.031006   0.132788   0.332818 
S   24.197905  15.947129  18.376257  -0.165651   0.231352  -0.029232 
S   26.962774  17.557658  18.439844  -0.032368   0.063526  -0.196774 
S   26.955033  17.610448  15.196914  -0.248941   0.225662  -0.362059 
S   24.225098  16.057828  15.168357  -0.420875  -0.222236   0.160414 
Mo  27.878593  16.042404  16.739885   0.793689   0.032182   1.034083 
Mo  30.612102  17.679032  16.776307   0.453116  -0.982097   0.966306 
S   29.725434  16.053029  18.389435  -0.095101  -0.166434  -0.333196 
S   32.450272  17.589634  18.427952   0.091264   0.412318  -0.394813 
S   32.470184  17.665587  15.202730   0.180961  -0.466729   0.153862 
S   29.766249  16.096135  15.217323  -0.167800  -0.703781  -0.536430 
Mo   0.068075  19.172222  16.788559   0.400943  -0.250687  -0.034587 
Mo   2.808829  20.748694  16.753208   0.096053   0.373700  -0.072036 
S    1.927140  19.192830  18.378413  -0.127168  -0.412692   0.118851 
S    4.615848  20.746321  18.353861   0.417018   0.050334   0.194529 
S    4.596285  20.776976  15.121304   0.539780   0.220187   0.378567 
S    1.910256  19.179887  15.161336  -0.132367  -0.429329   0.236419 
Mo   5.599617  19.212509  16.751662   0.102922  -0.254339  -0.153514 
Mo   8.383144  20.753578  16.704926   0.677106   0.064867   0.596556 
S    7.503649  19.138066  18.276734  -0.076566  -0.054206  -0.013855 
S   10.294730  20.744254  18.289842  -0.110766  -0.238733  -0.509416 
S   10.219251  20.843274  15.086903  -0.040722  -0.411852  -0.232974 
S    7.401428  19.214961  15.073576   0.127536   0.100366   0.136636 
Mo  11.163962  19.158562  16.610204   0.987757   1.020780  -0.205900 
Mo  13.959301  20.782691  16.569689   0.715716  -0.653480   0.606511 
S   13.119055  19.130086  18.149648  -0.769830   0.353418  -0.014905 
S   15.807120  20.713146  18.173104   0.321874   0.549395  -0.319915 
S   15.828712  20.771967  14.966331   0.299282   0.263886   0.286057 
S   13.056420  19.198594  14.967891  -0.765822   0.375714  -0.406594 
Mo  16.815112  19.182811  16.566005  -0.694616   0.579700   0.234438 
Mo  19.615015  20.833232  16.774224   0.128085   0.015688  -0.582157 
S   18.557917  19.196385  18.261883   0.319949   0.297772   0.507156 
S   21.438185  20.870463  18.458801  -0.221185  -0.244481  -0.676682 
S   21.539908  20.813784  15.212871  -0.663843   0.256932   0.000757 
S   18.766763  19.243636  15.156443   0.022670  -0.084253  -0.714604 
Mo  22.349997  19.225539  16.821806   0.342373  -0.497133   0.571616 
Mo  25.120907  20.751774  16.778816  -0.627795   0.450473   0.222759 
S   24.182744  19.203321  18.458596   0.047471  -0.320165  -0.616405 
S   26.842078  20.815871  18.415867   1.076000  -0.089590   0.020205 
S   26.929165  20.777544  15.202693   0.320457   0.069730  -0.149995 
S   24.217758  19.163362  15.230410  -0.401794  -0.058900  -0.268489 
Mo  27.803362  19.181745  16.825256   0.379783   0.364730  -0.040615 
Mo  30.613705  20.742755  16.804419   0.580056   0.467894   0.033801 
S   29.620827  19.187244  18.394942   0.442917   0.247973   0.353226 
S   32.524430  20.809239  18.397898  -0.637664   0.035466  -0.007117 
S   32.507624  20.749855  15.172510  -0.274047   0.442583   0.627258 
S   29.628018  19.169518  15.184695   0.110678   0.637680   0.011058 
Mo   0.091703  22.378569  16.764790  -0.396790   0.002499  -0.244244 
Mo   2.836676  23.941386  16.812902   0.244294   1.071925  -0.372484 
S    1.901150  22.299399  18.380656   0.142355   0.477807   0.146818 
S    4.718087  23.893952  18.400012  -0.245917   0.740834   0.044515 
S    4.709188  23.985221  15.227162  -0.121963   0.203921   0.059042 
S    1.942241  22.408301  15.184127  -0.233815  -0.207694  -0.109731 
Mo   5.567571  22.355301  16.776531   0.930516  -0.300779   0.147806 
Mo   8.412101  24.017028  16.767876  -0.015159  -0.624265   0.704012 
S    7.528304  22.332835  18.367174  -0.496239   0.219818  -0.413373 
S   10.350827  23.962918  18.310119  -0.393958  -0.119464  -0.079132 
S   10.222749  23.968720  15.127349   0.317447   0.476252   0.290067 
S    7.462865  22.373477  15.239956  -0.355545   0.560381  -0.804495 
Mo  11.203007  22.353835  16.676723   0.316908   0.607773   0.493306 
Mo  14.038143  23.949916  16.652192  -0.277076   0.533362   0.218248 
S   13.126757  22.352849  18.241950  -0.417024  -0.184798  -0.106631 
S   15.900771  23.975412  18.261693  -0.323565  -0.602524   0.018371 
S   15.862977  23.993385  15.060920  -0.031918   0.121818  -0.518086 
S   13.063671  22.388971  15.071659  -0.518400   0.356925  -0.597506 
Mo  16.755738  22.397893  16.592324   0.955373  -0.753219   0.736253 
Mo  19.590821  24.015186  16.689150  -0.006192  -0.510589  -0.057173 
S   18.637197  22.430003  18.264883  -0.722338  -0.038364  -0.065760 
S   21.407189  24.052720  18.386710  -0.394244  -0.207490  -0.207646 
S   21.445538  24.068731  15.156276   0.275545  -0.449141   0.096789 
S   18.703126  22.383795  15.040776  -0.037362   0.152306   0.829990 
Mo  22.359111  22.445133  16.810827  -0.098408  -0.095381  -0.547881 
Mo  25.129081  23.990998  16.821570   0.365897   0.185834  -0.372957 
S   24.232239  22.381383  18.291396  -0.382763  -0.070475   1.494095 
S   27.016018  23.963588  18.472858  -0.579359   0.207154  -0.749180 
S   26.921344  24.001074  15.178697   0.432204   0.034105   0.522702 
S   24.230985  22.394113  15.226749  -0.291096   0.190883  -0.390174 
Mo  27.891368  22.386928  16.789968  -0.801508   0.322440   0.172880 
Mo  30.690498  23.985139  16.791290  -0.670953   0.311442  -0.346780 
S   29.729690  22.423695  18.358511   0.229139  -0.469273   0.459309 
S   32.546510  24.075197  18.398991  -0.362328  -0.416052  -0.123177 
S   32.475096  24.009796  15.194246   0.511030   0.099063  -0.031421 
S   29.753389  22.337571  15.236231  -0.106341   0.388097  -0.491737 
