288
Lattice="33.326542 0.034971 0.030871 0.02691 25.657476 -0.000664 0.027094 9e-05 30.516443 " PBC="1 1 1" Properties="species:S:1:pos:R:3:force:R:3" Energy=" -5.285168"
Mo   0.026609  -0.112947  16.853029   0.640590   0.720711   0.175160 
Mo   2.814467   1.534952  16.714686   0.394723  -0.127645   0.144805 
S    1.933362  -0.063470  18.405075  -0.220772   0.147451  -0.591138 
S    4.676923   1.586029  18.307957  -0.129692  -0.234388   0.033914 
S    4.693823   1.546398  15.095358  -0.554457   0.000141   0.375171 
S    1.890983  -0.079435  15.102851  -0.577492  -0.127385   1.001590 
Mo   5.518960  -0.072197  16.736146   0.889164   0.757758   0.182144 
Mo   8.320762   1.520464  16.708147  -0.219794   0.038297   0.133483 
S    7.433160  -0.064448  18.316517  -0.237668  -0.091021  -0.196943 
S   10.211453   1.420909  18.299975  -0.201685   0.866186  -0.297532 
S   10.147348   1.495851  15.118514  -0.049726  -0.109311  -0.587193 
S    7.363948  -0.110479  15.143690   0.205472   0.009812  -0.127258 
Mo  11.097352  -0.113595  16.673133   0.672575   0.269231   0.533255 
Mo  13.911416   1.551279  16.571671  -0.896154  -0.669895   0.553449 
S   13.015497  -0.062340  18.229813  -0.048687   0.251988  -0.289595 
S   15.660162   1.500195  18.189304   1.068059   0.252674   0.004653 
S   15.773808   1.516683  15.042595   0.512979   0.322529  -0.345028 
S   12.908762  -0.082016  15.031296   0.541396  -0.231239   0.173381 
Mo  16.742111  -0.074637  16.607351  -0.120353   0.012949   0.586765 
Mo  19.492141   1.551470  16.725046   0.083301   0.437943  -0.775617 
S   18.475350   0.031365  18.323953   0.154954  -0.403286  -0.261678 
S   21.248341   1.510590  18.389727   0.302431   0.178376   0.090073 
S   21.495565   1.536360  15.212051  -0.746651   0.098853   0.372158 
S   18.685333  -0.089910  15.065946  -0.353474   0.270682   0.545042 
Mo  22.296624  -0.089264  16.850100   0.045888   0.664779   0.533520 
Mo  25.004225   1.611504  16.971516  -0.816314  -0.019823   0.173126 
S   24.090413  -0.049539  18.508725   0.009967  -0.154104  -0.051201 
S   26.767755   1.601122  18.621870   0.362573   0.047521   0.207797 
S   26.815056   1.563245  15.467301   0.609218   0.517348  -0.847156 
S   24.236264  -0.009034  15.340837  -0.496256  -0.297161  -0.161841 
Mo  27.788790   0.025233  17.040117   0.214461  -0.168349  -0.031176 
Mo  30.589643   1.583885  16.946297   0.517621  -0.240833   0.383304 
S   29.642229  -0.009171  18.581328   0.295623   0.525519   0.227275 
S   32.519808   1.602246  18.523540  -0.206036  -0.533865  -0.544670 
S   32.483111   1.562728  15.328698  -0.776182  -0.116214  -0.193106 
S   29.590671   0.074195  15.348705   0.098768  -0.706814   0.503186 
Mo   0.095588   3.118718  16.831908  -0.170107   0.288674  -0.623856 
Mo   2.743625   4.755581  16.751469   1.885729  -0.004043   0.240877 
S    1.992076   3.097746  18.384895  -0.481195   0.227616  -0.196017 
S    4.680543   4.766530  18.334373  -0.366287  -0.102702  -0.376317 
S    4.614786   4.807339  15.048997  -0.213868  -0.552115   1.023168 
S    1.896693   3.147622  15.143514  -0.380134  -0.106659   0.116945 
Mo   5.571236   3.168971  16.709094  -0.298044  -0.032006  -0.696558 
Mo   8.372080   4.669208  16.655155   0.256539   0.197748   0.091889 
S    7.400500   3.174231  18.294586   0.369244  -0.434107  -0.005198 
S   10.243545   4.749931  18.270614  -0.115786  -0.343978  -0.518361 
S   10.227444   4.683290  15.061703  -0.329994   0.204463  -0.243423 
S    7.358568   3.072131  15.044087   0.378481   0.269198   0.570834 
Mo  11.108111   3.090677  16.636111   0.284939   0.070161   1.150913 
Mo  13.899836   4.726067  16.657350   0.004019   0.184255   0.508114 
S   12.930017   3.044121  18.240491   0.394827   0.732845  -0.305132 
S   15.755303   4.665693  18.280265  -0.097925   0.446106  -0.177450 
S   15.807408   4.767049  15.122650  -0.196611   0.326203  -0.160704 
S   12.981898   3.181839  15.054763  -0.177068  -0.233756  -0.403438 
Mo  16.739080   3.135326  16.656988  -0.832508  -0.386883   0.131487 
Mo  19.440888   4.793618  16.763005  -0.790946   0.753244  -0.023907 
S   18.502386   3.137502  18.324018   0.231339   0.016269  -0.273444 
S   21.213392   4.795460  18.410743   0.408902   0.241843   0.035759 
S   21.334786   4.809808  15.275032   0.285752  -0.189648  -0.195269 
S   18.591969   3.251671  15.087587   0.287092  -0.675813   0.361829 
Mo  22.240639   3.163503  16.886780  -0.308744   0.325814  -0.171233 
Mo  25.009307   4.806747  16.894687  -0.166402   0.035304  -0.381562 
S   24.045527   3.243148  18.540747  -0.088381  -0.017339  -0.365598 
S   26.816190   4.875178  18.527484   0.106028  -0.366783   0.206165 
S   26.948369   4.730037  15.328765  -0.604939   0.407122   0.330353 
S   24.047497   3.215522  15.282357   0.682013  -0.191489   0.490482 
Mo  27.738078   3.194792  17.024659   0.796832  -0.321786   0.173217 
Mo  30.575517   4.774530  16.939712   0.105618   0.284262  -0.445885 
S   29.695872   3.123096  18.576193  -0.355594   0.667472  -0.172839 
S   32.513417   4.722863  18.423974  -0.321401   0.409330   0.723984 
S   32.406096   4.820247  15.239805   0.100138  -0.299633   1.154739 
S   29.587839   3.159413  15.425851   0.049738   0.127376  -0.377642 
Mo   0.051150   6.374757  16.887130  -0.606420  -0.428408  -1.168713 
Mo   2.845312   7.971619  16.763273   0.150171  -0.389578   0.370288 
S    1.946193   6.410792  18.384021  -0.087059  -0.364835   0.309472 
S    4.765580   7.886784  18.293155  -0.433821   0.204855   0.622018 
S    4.725974   7.996990  15.185396  -0.470776  -0.402868  -0.481803 
S    1.851302   6.351874  15.213437  -0.307849   0.461662  -0.138811 
Mo   5.619197   6.292599  16.707192   0.299706   0.748236  -0.353979 
Mo   8.366078   7.909624  16.670262  -0.053716   0.791046  -0.717197 
S    7.536384   6.296842  18.265433  -0.559869  -0.117371   0.115995 
S   10.175454   7.907108  18.184601   0.692871   0.394134   0.870013 
S   10.257265   8.022569  15.073781  -0.488031  -0.182332  -0.285364 
S    7.477108   6.270721  15.096096  -0.364056   0.316258  -0.215445 
Mo  11.103300   6.354234  16.618357   0.584296  -0.649266   0.275608 
Mo  13.893464   7.931538  16.662003   0.413235   1.329114  -0.552983 
S   12.981165   6.397507  18.198124  -0.445885  -0.949145   0.574040 
S   15.663025   7.998512  18.277674   0.353273   0.039846   0.483562 
S   15.783378   8.056458  15.098836  -0.097249  -0.598025   0.089089 
S   12.941517   6.336212  15.049521   0.482905  -0.008014  -0.075348 
Mo  16.640581   6.422669  16.740024  -0.181338  -0.915699  -0.689450 
Mo  19.368422   8.021519  16.784817   0.992066   0.322922  -0.669671 
S   18.406932   6.419737  18.349769   0.525124  -0.331899   0.033057 
S   21.208283   8.037042  18.397583   0.229192   0.004454  -0.090036 
S   21.288495   8.041676  15.163296  -0.002918  -0.232250   0.880189 
S   18.474407   6.477896  15.123938   0.340097  -0.546118   0.600398 
Mo  22.220488   6.445371  16.839931  -0.328102  -0.363604  -0.088069 
Mo  25.032121   7.984936  16.856382  -0.240455  -0.066479   0.219282 
S   24.054920   6.404397  18.466464  -0.145609   0.130454  -0.087321 
S   26.863654   7.953090  18.478580  -0.437585   0.271747   0.451593 
S   26.840636   7.956180  15.245314   0.332953  -0.178039   0.336740 
S   24.103311   6.421146  15.263203  -0.059868  -0.385112   0.120707 
Mo  27.814519   6.408151  16.928458  -0.461904  -0.709640  -0.924699 
Mo  30.487209   8.010235  16.938292   1.055902  -0.138383  -0.370119 
S   29.653028   6.385375  18.522236   0.044070  -0.177124   0.205225 
S   32.391495   7.997451  18.476339   0.114144   0.081825   0.303675 
S   32.401395   7.964992  15.298650  -0.172735   0.364919   0.657133 
S   29.646816   6.434391  15.320645   0.162777  -0.655211   0.142913 
Mo   0.037497   9.561107  16.881371   0.025274  -0.187444  -0.194082 
Mo   2.870432  11.136369  16.835966  -0.456821  -0.078619  -0.286517 
S    1.937441   9.543450  18.432669   0.070525  -0.089676  -0.108208 
S    4.721801  11.152781  18.380176   0.231174  -0.339187   0.508928 
S    4.712687  11.156613  15.195584  -0.393757   0.092772  -0.061111 
S    1.893389   9.558587  15.234890  -0.221757   0.317104   0.050228 
Mo   5.604905   9.560103  16.771114   1.179768   0.143021  -0.049689 
Mo   8.431597  11.179669  16.676860   0.354137  -0.551084   0.679213 
S    7.512295   9.540174  18.320100  -0.060715   0.202628  -0.536017 
S   10.273744  11.076615  18.313860  -0.132092   0.694407  -0.277087 
S   10.352673  11.253778  15.125544  -0.815394  -0.626357  -0.353558 
S    7.453637   9.588514  15.106662  -0.064264  -0.225259   0.233361 
Mo  11.210115   9.564404  16.678498  -0.047161   0.142378   0.109935 
Mo  13.930098  11.220249  16.695619   0.411715  -0.086470   0.375795 
S   13.072625   9.600210  18.312902  -0.565497  -0.414372  -0.535200 
S   15.729890  11.228041  18.353780   0.329702  -0.057118  -0.538587 
S   15.842049  11.250512  15.139840  -0.489720  -0.138766  -0.122105 
S   13.084221   9.595455  15.073845  -0.436600  -0.014259   0.165251 
Mo  16.673036   9.606657  16.728684   0.043252   0.564603  -0.070783 
Mo  19.470441  11.188749  16.763781  -0.116631   0.197852  -0.373826 
S   18.456306   9.643762  18.372636   0.188529  -0.332879  -0.158092 
S   21.263938  11.214344  18.347942   0.491704  -0.092745   0.447415 
S   21.353691  11.229729  15.180027  -0.054070  -0.623871  -0.076617 
S   18.592419   9.646393  15.092421  -0.608132  -0.518121   0.850630 
Mo  22.239291   9.604884  16.812321  -0.459579  -0.138952  -0.316879 
Mo  24.953512  11.243976  16.791414   0.547198  -0.893699   1.685447 
S   24.070252   9.561613  18.426462  -0.021888   0.691151  -0.112600 
S   26.762150  11.243678  18.492835  -0.033539  -0.774543  -0.525411 
S   26.804806  11.210691  15.292566   0.361626  -0.592802  -0.633960 
S   24.142165   9.617576  15.270153  -0.518686  -0.592816  -0.535278 
Mo  27.701330   9.546486  16.886254   0.356925   1.089137   0.090391 
Mo  30.532203  11.086579  16.903403   0.317304   0.579931   0.205938 
S   29.504472   9.581799  18.565182   0.395637  -0.030948  -0.659600 
S   32.412774  11.189554  18.557356  -0.201339  -0.660358  -0.612328 
S   32.444394  11.166203  15.316537  -0.426149  -0.365441  -0.024203 
S   29.558131   9.537391  15.282357   0.107351   0.110204   0.338728 
Mo  -0.007485  12.700153  16.889640   1.267186  -0.151903  -0.378121 
Mo   2.831562  14.329840  16.908919  -0.283410  -0.042266   0.246899 
S    1.896047  12.657567  18.480208   0.124506   0.504111  -0.304811 
S    4.762424  14.334606  18.462667  -0.222754   0.008514  -0.275621 
S    4.621598  14.374720  15.312273   0.454939  -0.086374  -0.327968 
S    1.917339  12.722016  15.270975  -0.323659   0.273910   0.386907 
Mo   5.648483  12.721583  16.802460  -0.026938   0.883150   0.550528 
Mo   8.407296  14.415459  16.702512  -0.358494   0.229223   0.020204 
S    7.635485  12.816850  18.313042  -0.810311  -0.548748   0.063738 
S   10.195962  14.433067  18.358108   0.744476  -0.032822  -0.801544 
S   10.248281  14.411348  15.124181   0.259327   0.019992   0.125250 
S    7.406313  12.770042  15.169086   0.485974   0.329233  -0.552888 
Mo  11.157576  12.789795  16.745378  -0.217958   0.693659   0.303172 
Mo  13.928598  14.440555  16.762771  -0.007652  -1.051859  -0.079356 
S   12.950552  12.814410  18.317658   0.561720  -0.052176   0.178614 
S   15.792971  14.412217  18.315826   0.081245  -0.164051   0.571386 
S   15.772821  14.428906  15.210619   0.399793  -0.037089  -0.469234 
S   12.997325  12.799630  15.131206   0.129559   0.594919   0.049618 
Mo  16.751258  12.810710  16.745227  -0.786992   0.011585   0.154541 
Mo  19.459812  14.433058  16.714804   0.225944  -0.539678   0.089722 
S   18.550712  12.801095  18.341114   0.222252   0.336585   0.009302 
S   21.233043  14.381174  18.321704   0.567068  -0.021783   0.368004 
S   21.382543  14.379398  15.192345  -0.232590   0.660215  -0.249665 
S   18.598014  12.770971  15.139783  -0.179588   0.403419  -0.056658 
Mo  22.266535  12.783289  16.759376  -0.624482   0.268522   0.899707 
Mo  24.960669  14.349434  16.833554   0.231700   0.408046   0.205687 
S   24.055069  12.768639  18.434722  -0.489134   0.126932  -0.041660 
S   26.769559  14.300650  18.462121   0.370206   0.149479   0.064481 
S   26.855529  14.427872  15.300822   0.076011  -0.793387  -0.149724 
S   24.082490  12.771231  15.163933   0.128672   0.494505  -0.176697 
Mo  27.754120  12.715782  16.874060   0.466864   1.104694   0.156287 
Mo  30.565783  14.292664  16.864143  -0.217290   0.027494  -0.150242 
S   29.643485  12.712546  18.477227  -0.324670  -0.059745  -0.141595 
S   32.424193  14.295628  18.482762  -0.417252   0.240036   0.484808 
S   32.422059  14.277629  15.279391   0.021104   0.463249   0.236606 
S   29.619940  12.640017  15.268815   0.057572   0.577612   0.304124 
Mo  -0.040212  15.886691  16.910476   0.530717   0.523223  -1.011120 
Mo   2.860302  17.612184  16.838509  -0.225654  -0.714667  -0.281646 
S    1.908799  16.009127  18.417484  -0.122134  -0.325163   0.468415 
S    4.684301  17.582472  18.447482   0.412648   0.330289  -0.050392 
S    4.704344  17.532933  15.241606  -0.238614   0.293081  -0.166314 
S    1.857603  15.939534  15.362284  -0.031619  -0.070813  -0.473938 
Mo   5.631744  15.993581  16.861885  -0.298164  -0.549226  -0.070218 
Mo   8.415917  17.604458  16.743024   0.349428  -0.025586  -0.037845 
S    7.535336  15.987600  18.381738  -0.052490   0.119644  -0.281634 
S   10.287342  17.630323  18.329894  -0.198666  -0.378869  -0.104411 
S   10.332816  17.597070  15.105160  -0.835172   0.280582   0.132173 
S    7.376718  16.044011  15.157482   0.431247  -0.214853   0.171856 
Mo  11.223982  16.046909  16.704317  -0.377576  -0.844417   0.776879 
Mo  14.026370  17.632964  16.739560  -0.568372  -0.297540   0.681077 
S   13.052364  16.045916  18.333884  -0.083029   0.259270   0.097371 
S   15.902790  17.624413  18.363791  -0.738028   0.224595   0.217733 
S   15.829705  17.605396  15.124581   0.483860   0.483542   0.578928 
S   13.105774  16.010063  15.154584  -0.329171   0.328527  -0.377558 
Mo  16.733630  16.034301  16.786447   0.513671   0.141251  -0.918362 
Mo  19.508229  17.640991  16.829389   0.969251   0.227778  -0.314867 
S   18.601153  16.039242  18.349720  -0.338311  -0.355327   0.394332 
S   21.396788  17.581310  18.457216  -0.565897  -0.024797   0.086723 
S   21.401916  17.696100  15.267344   0.161925  -0.274708   0.511988 
S   18.605322  16.102907  15.168465  -0.327287  -0.233900  -0.009278 
Mo  22.293776  15.993939  16.830520  -0.749021   0.003333  -0.469214 
Mo  25.011599  17.521424  16.906915  -0.115456   0.845164   0.843913 
S   24.025989  15.912469  18.501191   0.417682   0.074968  -0.308024 
S   26.830076  17.536484  18.507371   0.372755  -0.084036   0.364910 
S   26.881833  17.605959  15.398807   0.232323  -0.116435  -0.496866 
S   24.139051  16.005878  15.250311  -0.224058  -0.186579  -0.165487 
Mo  27.767919  15.934002  16.934998   0.136622   0.128513   0.300825 
Mo  30.515646  17.560796  16.923430   0.823783  -0.260411   0.225506 
S   29.668981  15.866877  18.495594  -0.297714   0.307296  -0.089509 
S   32.451739  17.559975  18.527360  -0.415568   0.028723  -0.511512 
S   32.293177  17.545892  15.296263   0.794565  -0.497215   0.262644 
S   29.556629  15.950087  15.310339   0.480230  -0.139218   0.151559 
Mo   0.056785  19.073703  16.806078  -0.587356   0.845250   0.352905 
Mo   2.787060  20.813731  16.839413   0.277051  -0.418811  -0.225100 
S    1.916846  19.145037  18.412835  -0.193918   0.530658   0.293929 
S    4.712736  20.801366  18.347683  -0.216555   0.315749   0.250158 
S    4.649775  20.783238  15.205330   0.060568   0.192259   0.421500 
S    1.911872  19.175370  15.225674  -0.050689  -0.115267   0.083822 
Mo   5.629322  19.169318  16.793912  -0.399119   0.286625   0.178362 
Mo   8.423807  20.827229  16.777415  -0.365145  -0.330839   0.810068 
S    7.501776  19.205559  18.341513   0.074010  -0.160295   0.256391 
S   10.315993  20.760993  18.371928  -0.315603   0.516546  -0.118152 
S   10.294718  20.789103  15.210055  -0.396286   0.425145  -0.646686 
S    7.445509  19.224655  15.211189   0.368313  -0.046790  -0.429406 
Mo  11.203584  19.199876  16.735926  -0.608250  -0.342266   0.182132 
Mo  13.987061  20.760680  16.724610   0.092769   0.587711   0.434832 
S   12.966509  19.233549  18.317577   1.127356  -0.366880   0.465696 
S   15.811460  20.787172  18.350718  -0.097113   0.241209   0.172386 
S   15.899276  20.763501  15.144206  -0.512632  -0.190695  -0.163188 
S   13.002336  19.147987  15.172343   0.768819   0.431196  -0.762097 
Mo  16.790220  19.246270  16.800941  -0.100457  -1.101549  -0.987249 
Mo  19.559796  20.806213  16.868179   0.458460   0.621573  -0.355854 
S   18.616680  19.261904  18.408848  -0.243519  -0.481023   0.618480 
S   21.393555  20.877501  18.496343  -0.105469  -0.028938   0.213666 
S   21.442467  20.823714  15.374607   0.168046  -0.022435  -0.658044 
S   18.674672  19.251857  15.214342  -0.287024  -0.090338   0.081950 
Mo  22.340589  19.237616  16.982122  -0.337353  -0.352760  -0.445074 
Mo  25.108049  20.767640  16.992227   0.259825  -0.144003   0.104167 
S   24.180923  19.150813  18.619030  -0.158913   0.067487  -0.656889 
S   27.012817  20.789392  18.568288  -0.488880   0.046387  -0.082928 
S   26.987194  20.725790  15.386346  -0.447991   0.490083  -0.120634 
S   24.121694  19.197376  15.367104   0.558790   0.030647   0.036272 
Mo  27.865569  19.175608  16.985538  -0.191578  -0.347065   0.151849 
Mo  30.602750  20.814597  16.954850  -0.139844  -0.647838  -0.578511 
S   29.738066  19.160164  18.574450  -0.358674   0.204834  -0.171033 
S   32.459278  20.785755  18.406982   0.762821  -0.386658   0.762733 
S   32.384954  20.754285  15.277117   0.432473   0.091932   0.322014 
S   29.665029  19.226012  15.332178  -0.024612  -0.336157   0.264590 
Mo   0.028727  22.392429  16.835646  -0.300797  -0.562902  -0.107724 
Mo   2.806633  23.986953  16.766174  -0.012712   0.273749   0.217859 
S    1.873614  22.446309  18.419465   0.254662  -0.398392   0.042282 
S    4.633526  24.126207  18.418132   0.056456  -0.957579  -0.551461 
S    4.622001  24.023164  15.160523  -0.016844  -0.399184  -0.285641 
S    1.832179  22.348319  15.217844   0.147859   0.337592  -0.077652 
Mo   5.586703  22.471641  16.773737  -0.560629  -0.878482   0.292587 
Mo   8.376835  23.961375  16.713339   0.086148   0.555457   0.774555 
S    7.377894  22.457447  18.374551   0.819113  -0.425809  -0.152071 
S   10.229479  23.976417  18.324108   0.057377   0.093999  -0.016164 
S   10.242662  23.982677  15.116532  -0.199297  -0.801815  -0.159723 
S    7.442306  22.353913  15.228720  -0.132188   0.215340  -1.049165 
Mo  11.214923  22.410811  16.773047  -0.088940  -0.348600  -0.101745 
Mo  14.011315  24.007115  16.665091  -0.782915  -0.432097  -0.344676 
S   13.117624  22.469849  18.341645  -0.166381  -0.519025  -0.517856 
S   15.826399  24.015636  18.246799   0.453312  -0.119043   0.070556 
S   15.877326  23.890446  15.107449  -0.009845   0.268162  -0.421427 
S   13.044856  22.325092  15.158204   0.111405   0.477021  -0.359032 
Mo  16.799283  22.326380  16.730863  -0.297237   0.994473   0.387041 
Mo  19.517054  24.042516  16.802627   0.808388  -0.467966  -0.029539 
S   18.589900  22.399231  18.398491  -0.080756   0.461163   0.057448 
S   21.312600  23.987900  18.484743   0.159506   0.503307  -0.445700 
S   21.497761  24.011289  15.238417  -0.642839  -0.249287   0.053825 
S   18.729757  22.391077  15.211123  -0.339958  -0.077393  -0.066220 
Mo  22.350378  22.463853  16.892129   0.182459  -0.893707   0.022308 
Mo  25.095323  23.989208  16.925712   0.651270   0.142205   0.366146 
S   24.139343  22.436217  18.541835   0.325538  -0.251105  -0.260523 
S   26.973297  23.985072  18.579579  -0.498833  -0.161081  -0.531156 
S   27.006020  24.120586  15.411721  -0.309486  -0.888018  -0.298606 
S   24.283841  22.287814  15.293721  -0.430705   0.832032   0.591621 
Mo  27.919873  22.380039  16.922589  -0.999661   0.756310   0.398252 
Mo  30.566911  24.078722  16.996090   0.231369  -0.621957  -1.051900 
S   29.678376  22.393795  18.558640   0.382983   0.292037   0.114103 
S   32.435150  23.988138  18.508484   0.405387   0.317469   0.158970 
S   32.394082  24.018282  15.338526  -0.326790   0.095758  -0.344830 
S   29.772409  22.435474  15.369244  -0.493513   0.221226  -0.242154 
