288
Lattice="33.337608 0.035055 0.030854 0.026974 25.649478 -0.000664 0.027079 9e-05 30.441663 " PBC="1 1 1" Properties="species:S:1:pos:R:3:force:R:3" Energy=" -5.285725"
Mo   0.065462  -0.029970  16.876108  -0.660717  -0.052511  -0.437893 
Mo   2.842611   1.546429  16.814934  -0.078841   0.772124   0.140856 
S    1.981900  -0.045700  18.412751  -0.528266   0.185558   0.402214 
S    4.698320   1.541317  18.415336  -0.063144   0.049885  -0.015199 
S    4.703965   1.562054  15.239675  -0.401504   0.095896  -0.559798 
S    1.845407  -0.031583  15.291692   0.300271   0.342486  -1.082896 
Mo   5.623507  -0.025393  16.780700   0.400619  -0.011944   1.031933 
Mo   8.358792   1.513865  16.788389   0.881347   1.434820   0.568966 
S    7.487997  -0.039296  18.411454  -0.166496  -0.281686  -0.145056 
S   10.311667   1.593732  18.365216  -0.744002  -0.827526  -0.237906 
S   10.157320   1.516548  15.144705   0.224692   0.550106  -0.043261 
S    7.472531  -0.021057  15.226557  -0.337063  -0.112925  -0.898649 
Mo  11.118785  -0.059615  16.691149  -0.036731   0.202081   1.648072 
Mo  13.910324   1.553822  16.717087  -0.396951  -0.253927   0.015387 
S   12.933168  -0.104360  18.279338   0.589719   0.082262   0.122979 
S   15.701494   1.541265  18.298449   0.698006   0.028137   0.157250 
S   15.726831   1.552933  15.130075   0.604817   0.504296   0.203234 
S   12.955031  -0.068204  15.198420   0.378307   0.320760  -1.289122 
Mo  16.649463  -0.078880  16.699834   0.230799   0.189566   0.570469 
Mo  19.485246   1.523287  16.749922  -0.475967   0.683235   0.742858 
S   18.460452  -0.137692  18.320134   0.273459   0.743661   0.038186 
S   21.293574   1.586626  18.430140   0.110889  -0.218806  -0.549554 
S   21.397754   1.617695  15.230444  -0.445293  -0.678636  -0.346611 
S   18.543507  -0.045338  15.108977   0.244041  -0.043217   0.515999 
Mo  22.262408  -0.022718  16.821962   0.077615   0.045180  -0.194761 
Mo  25.066091   1.578385  16.756422  -0.156460   0.471140   0.428124 
S   24.078765   0.058613  18.427989   0.254345  -0.252518  -0.010178 
S   26.857164   1.560838  18.379922   0.153022   0.395444   0.494224 
S   26.959397   1.610094  15.179433   0.101041  -0.137346   0.710640 
S   24.148426  -0.009666  15.231632  -0.359428  -0.378492  -0.136178 
Mo  27.849287  -0.020909  16.860115  -0.646408   0.340032   0.103174 
Mo  30.667173   1.604653  16.899476  -0.542108  -1.101284  -0.639355 
S   29.655400  -0.017078  18.464536   0.677450  -0.332958  -0.188737 
S   32.468043   1.550211  18.534400   0.202611   0.193329   0.020120 
S   32.488468   1.683716  15.243941  -0.004809  -0.691649   0.931021 
S   29.691062  -0.118935  15.351020   0.514946   0.978154  -0.854744 
Mo   0.053961   3.136861  16.931165   0.480766   0.105378  -1.136756 
Mo   2.953270   4.733546  16.838425  -1.445433   0.785538  -0.733590 
S    1.975382   3.208428  18.422834  -0.000026  -0.598298   0.356626 
S    4.811370   4.769813  18.412256  -0.410171   0.033159   0.423746 
S    4.748624   4.743199  15.198964  -0.301508  -0.026544  -0.166382 
S    1.860994   3.211251  15.249584   0.460761  -0.363005   0.313326 
Mo   5.624359   3.148244  16.823194  -0.073008   0.032371  -0.371524 
Mo   8.424946   4.734913  16.752541  -0.428768   0.507273   0.334398 
S    7.426937   3.126676  18.383495   0.947012   0.208339   0.170641 
S   10.301201   4.730039  18.278674  -0.243502   0.199336   0.553573 
S   10.250282   4.713165  15.085733   0.068231  -0.079704   0.575414 
S    7.440058   3.170633  15.207202   0.155913  -0.446727  -0.152269 
Mo  11.187080   3.112608  16.738733  -0.036083   0.534736  -0.839300 
Mo  13.963415   4.736790  16.765447   0.029090   0.662645   0.113091 
S   13.066741   3.133544  18.329109  -0.501569  -0.139681   0.190337 
S   15.806985   4.791861  18.418407  -0.222748  -0.152513  -0.266721 
S   15.774488   4.740513  15.166541   0.411425   0.468748   0.068560 
S   13.008922   3.173953  15.114700   0.187863  -0.109159   0.170804 
Mo  16.709118   3.226448  16.776514  -0.327654  -1.479321   0.110033 
Mo  19.504089   4.762764  16.851129   0.738588   0.631954  -0.683338 
S   18.567606   3.184565  18.365646  -0.135815  -0.781368   0.341264 
S   21.381107   4.805683  18.422391  -0.003697  -0.022509  -0.090962 
S   21.376204   4.756038  15.257566  -0.034032   0.848444  -0.080826 
S   18.572193   3.227633  15.241492   0.153986  -0.409231  -0.522356 
Mo  22.285154   3.183499  16.803599  -0.077878  -0.178940   0.161023 
Mo  25.020475   4.823313  16.850458   1.252365  -0.210144   0.117208 
S   24.084102   3.160987  18.344674   0.583615  -0.031526   0.618076 
S   26.954352   4.740946  18.498683  -0.776203   0.512951  -0.213295 
S   26.941945   4.863460  15.312266  -0.257148  -0.692704  -0.255949 
S   24.183821   3.200543  15.164345  -0.418892   0.275732   0.484685 
Mo  27.831017   3.219793  16.880954   0.471615  -1.025816  -0.704233 
Mo  30.603906   4.798726  16.892584   0.210159  -0.263992   0.495453 
S   29.716003   3.135432  18.470274  -0.424511   0.505393   0.220657 
S   32.446023   4.763243  18.454060   0.129693   0.468804   0.874624 
S   32.470817   4.761290  15.347441   0.095068   0.075033  -0.321250 
S   29.726722   3.190723  15.303354  -0.333224  -0.037312  -0.086530 
Mo   0.071391   6.343803  16.859570   0.337637  -0.343734   0.151875 
Mo   2.843288   7.916862  16.850967   0.687780   0.330080  -1.112047 
S    1.973387   6.306054  18.418234  -0.173282   0.019545   0.322335 
S    4.739000   8.010469  18.353106   0.003764  -0.265814   0.393936 
S    4.714830   8.030706  15.178815  -0.601461  -0.796595   0.365486 
S    1.894096   6.348200  15.237736   0.504085  -0.403694   0.260824 
Mo   5.609061   6.343646  16.776706   0.901888   0.839156  -0.436466 
Mo   8.350257   7.987008  16.688602   1.301513  -0.303034   0.249983 
S    7.482706   6.441238  18.329443   0.204108  -0.634661   0.054980 
S   10.252162   7.997510  18.280585   0.144932   0.117357  -0.715665 
S   10.199578   7.837291  15.082013   0.329602   0.826204  -0.044066 
S    7.491936   6.356137  15.170125  -0.587064  -0.532358  -0.199049 
Mo  11.175606   6.335447  16.698017   0.345668   0.114353   0.106272 
Mo  14.054936   7.982003  16.762693  -0.655330  -0.500099   0.310414 
S   12.991983   6.359248  18.353276   0.377459   0.210130  -0.387976 
S   15.873837   7.992140  18.401170  -0.135707  -0.127009  -0.196172 
S   15.857679   7.921563  15.139479   0.201353  -0.125665   0.269485 
S   13.141255   6.412752  15.190695  -0.595369  -0.605067  -0.201259 
Mo  16.750515   6.344254  16.795522  -0.204359   0.424127  -0.292446 
Mo  19.563434   7.957620  16.795259  -0.181048   0.157095   0.259326 
S   18.608559   6.383822  18.389595  -0.152995   0.043216   0.407832 
S   21.459269   8.034771  18.374962  -0.661663   0.307462   0.266261 
S   21.354971   7.982751  15.195119   0.493195  -0.263724  -0.320095 
S   18.620003   6.353171  15.212686  -0.079746  -0.208785   0.105781 
Mo  22.332500   6.447730  16.836104   0.132120  -1.008612  -0.799220 
Mo  25.149632   7.993964  16.893708  -0.957200  -0.235729   0.031321 
S   24.131832   6.422640  18.503947   0.195747  -0.090352  -0.573955 
S   26.940172   8.019882  18.536702   0.418561  -0.298713  -0.619046 
S   26.958270   7.928234  15.299044   0.357948   0.015692  -0.178319 
S   24.226925   6.431607  15.209061  -0.464008   0.036377   0.728876 
Mo  27.914810   6.353143  16.909960  -0.834063   1.157887   0.369290 
Mo  30.685114   7.933774  16.852533  -0.212965   0.205919   0.294141 
S   29.696326   6.432779  18.519196   0.538904  -0.519755  -0.080924 
S   32.498013   7.943207  18.526349  -0.096343   0.009356  -0.174974 
S   32.516969   7.961955  15.273432   0.153564   0.119743   0.167101 
S   29.747304   6.350455  15.274404  -0.372986   0.139016  -0.144419 
Mo   0.065578   9.519304  16.911076   0.241637   0.023363  -1.002896 
Mo   2.842800  11.132516  16.786286   0.585255   0.015565   0.992342 
S    1.969974   9.480595  18.426829  -0.192710   0.670030   0.311417 
S    4.734108  11.177439  18.374568  -0.027151   0.309375  -0.373459 
S    4.664723  11.162972  15.157265  -0.045927  -0.039631  -0.077993 
S    1.936995   9.524436  15.268059  -0.659655  -0.229457  -0.180001 
Mo   5.634030   9.604805  16.757309   0.100177  -0.117462  -0.240056 
Mo   8.451569  11.124113  16.568085  -0.220044   0.936859   0.967218 
S    7.553240   9.625711  18.232127  -0.268350   0.052869   0.754800 
S   10.335221  11.195453  18.166435  -0.332804  -0.448308  -0.323065 
S   10.253194  11.094796  14.936580   0.282725  -0.099260   0.043824 
S    7.414437   9.521790  15.078826   0.011906   0.253140  -0.379603 
Mo  11.236487   9.541151  16.581596  -0.677840  -0.121526   0.707939 
Mo  14.024690  11.139596  16.609593  -1.184222   0.461951  -0.345747 
S   13.076169   9.621399  18.231166  -0.425312  -0.145304   0.300349 
S   15.786070  11.186952  18.255211   0.311796  -0.187928   0.259891 
S   15.826297  11.076547  15.049384   0.632134   0.048665  -0.079873 
S   13.124001   9.478177  15.087421   0.001260   0.056137  -0.493135 
Mo  16.767276   9.534491  16.740941  -0.095680   0.482545  -0.266972 
Mo  19.566301  11.200223  16.676671  -0.219568  -0.220092  -0.290732 
S   18.668665   9.681867  18.275834  -0.456269  -0.656001   0.617864 
S   21.378403  11.210567  18.326246  -0.230280  -0.484538  -0.190176 
S   21.450493  11.204471  15.085362  -0.437608  -0.621932  -0.089430 
S   18.604845   9.461001  15.168126   0.353172   0.662615  -0.247041 
Mo  22.327983   9.589734  16.715374   0.233036   0.480177   0.430690 
Mo  25.102611  11.202632  16.793536   0.090955  -0.385023  -0.234076 
S   24.111745   9.648009  18.406408   0.380535  -0.272214  -0.274518 
S   26.918373  11.126929  18.428891   0.017864   0.479274  -0.138521 
S   26.992529  11.192552  15.227272  -0.131378  -0.183703   0.154532 
S   24.304185   9.524251  15.213729  -0.605722   0.415193   0.003814 
Mo  27.883751   9.554710  16.838648   0.038950  -0.004091  -0.320744 
Mo  30.593607  11.193815  16.893702   0.508897  -0.215973  -0.692495 
S   29.710493   9.520824  18.389760   0.138098   0.290418   0.800779 
S   32.476844  11.191391  18.464242  -0.128441  -0.310661   0.450683 
S   32.495300  11.173174  15.312975  -0.292500  -0.349749  -0.031595 
S   29.799140   9.530929  15.227009  -0.491505   0.402196   0.530868 
Mo   0.113279  12.695950  16.848588  -0.439332   0.791158   0.177656 
Mo   2.893926  14.336736  16.780668  -0.198447  -0.406043  -0.373166 
S    1.981199  12.778055  18.407480   0.023141  -0.421322   0.057768 
S    4.731345  14.371570  18.300259   0.474709  -0.149113   0.539987 
S    4.707438  14.359292  15.102077  -0.296004   0.054341   0.153189 
S    1.901703  12.691794  15.211746   0.191919   0.291528  -0.102136 
Mo   5.638231  12.778161  16.687329   0.256417  -0.221242   0.517450 
Mo   8.415728  14.393986  16.589267  -0.847721  -0.190942   1.026043 
S    7.529672  12.774487  18.255662   0.242079  -0.048347  -0.813117 
S   10.258260  14.347444  18.145307   0.382735   0.299991  -0.157156 
S   10.189311  14.334307  14.993751   0.238974   0.545203  -0.820689 
S    7.500061  12.785437  15.055295  -0.545141  -0.233572  -0.200648 
Mo  11.158357  12.745517  16.507564   0.526676  -0.131379   0.491614 
Mo  13.934415  14.339621  16.470519   0.557109   0.738473   0.561802 
S   13.035855  12.787379  18.087319  -0.206672   0.045950   0.258288 
S   15.708903  14.376220  18.198757   0.259294  -0.252008  -0.842023 
S   15.895946  14.350632  14.956435  -0.352042  -0.142707   0.461248 
S   13.020999  12.736851  14.926079   0.283548  -0.537674  -0.057943 
Mo  16.715368  12.709459  16.622305   0.585735   0.993215  -0.102247 
Mo  19.554095  14.356555  16.719625  -1.064579   0.476769  -0.710705 
S   18.543824  12.813353  18.264885   0.059620  -0.470174  -0.127475 
S   21.359489  14.322534  18.368163  -0.073165   0.276996  -0.318691 
S   21.394481  14.341145  15.135406  -0.038100   0.654956  -0.148733 
S   18.636872  12.754766  15.045316  -0.165040   0.101692   0.571390 
Mo  22.255664  12.752167  16.711697   1.548127   0.670673   0.603011 
Mo  25.046012  14.420562  16.848395  -0.771950  -0.000062   0.513753 
S   24.103953  12.750396  18.348022  -0.161068   0.295655   0.161368 
S   26.816537  14.354772  18.504782   0.513701   0.539544  -0.466599 
S   26.866745  14.402039  15.309530   0.513634   0.237695  -0.437467 
S   24.197516  12.851020  15.183741  -0.174773  -0.374811   0.204674 
Mo  27.838030  12.801634  16.858217  -0.708463  -0.169793   0.414642 
Mo  30.623188  14.336912  16.941466   0.109930   0.526747   0.053457 
S   29.583241  12.757708  18.500289   0.688279   0.022884   0.155953 
S   32.503182  14.283681  18.529781   0.023549   0.390224  -0.168135 
S   32.501194  14.369036  15.331784  -0.189698  -0.124540   0.148629 
S   29.676608  12.840034  15.298962   0.343198  -0.410695  -0.180696 
Mo   0.096191  15.905955  16.914235   0.490663   0.038275  -0.823791 
Mo   2.832317  17.587200  16.749999  -0.115634  -0.469677  -0.125608 
S    2.057122  15.944239  18.412106  -0.503845   0.078679  -0.033277 
S    4.716462  17.621211  18.231365   0.023957  -0.009899   1.019369 
S    4.613750  17.528837  15.092169   0.276799   0.510242   0.114922 
S    1.953534  15.873401  15.226997  -0.849769   0.714941   0.023633 
Mo   5.598942  15.981326  16.726587   0.146700  -0.149709  -0.843108 
Mo   8.422209  17.603753  16.597990  -0.629433  -0.043645  -0.062652 
S    7.519933  16.028378  18.224984   0.085161  -0.303143   0.016816 
S   10.309526  17.552986  18.123094  -0.169632   0.319900   0.092088 
S   10.240545  17.588621  14.919137  -0.156913   0.050872   0.199172 
S    7.354690  15.975650  15.063347   0.624641   0.251784  -0.137654 
Mo  11.161843  15.976790  16.517999   0.410507  -0.549510   0.087382 
Mo  13.984652  17.532061  16.580346  -1.491341   0.952219  -0.519616 
S   13.006806  15.909585  18.130392   0.075657   0.095598  -0.401647 
S   15.714312  17.545217  18.216253   0.417085  -0.187716   0.240097 
S   15.837087  17.532175  15.006768   0.074505   0.542810   0.251292 
S   13.039384  16.013070  14.930552  -0.074260  -0.287997  -0.061357 
Mo  16.746667  15.961855  16.612845  -0.087880  -0.475242   0.257837 
Mo  19.453378  17.568057  16.720466  -0.201899   0.230818  -0.597118 
S   18.537240  15.938801  18.315813  -0.004313  -0.007257  -0.649089 
S   21.238872  17.586053  18.321318   0.219912  -0.057939   0.512743 
S   21.379139  17.640179  15.178682  -0.338241  -0.462720  -0.120901 
S   18.625646  15.945537  15.011437   0.186408   0.020184   1.126589 
Mo  22.232636  15.990951  16.774233   0.194061  -0.320802   0.202696 
Mo  25.049556  17.647753  16.843746   0.041827  -0.223835  -0.149192 
S   24.037316  16.077919  18.429769   0.253725  -0.480283  -0.231089 
S   26.892598  17.645844  18.454264  -0.081394  -0.196107  -0.003303 
S   26.910347  17.597398  15.169862   0.058203   0.034387   1.109281 
S   24.126273  16.038293  15.289163   0.212532   0.029890  -0.714552 
Mo  27.792756  16.022687  16.896155   0.242354  -0.535606  -0.456242 
Mo  30.663080  17.599121  16.879266  -0.537709  -0.438455  -0.643950 
S   29.662207  16.021584  18.463066   0.253386  -0.146101   0.123343 
S   32.499253  17.609602  18.407153   0.125909   0.099078   0.922723 
S   32.558837  17.528254  15.273408  -0.534986   0.102999   0.314809 
S   29.714804  15.892653  15.318286  -0.136596   0.885160   0.233676 
Mo   0.047227  19.200907  16.797995   0.211020  -0.282916  -0.370886 
Mo   2.816861  20.812570  16.838976   0.228253  -0.127491  -0.731797 
S    1.886732  19.126089  18.390552   0.269976   0.632464   0.061608 
S    4.745479  20.775922  18.330680  -0.152486  -0.081583   0.025213 
S    4.639847  20.844213  15.168658  -0.237749  -0.085366  -0.167850 
S    1.893438  19.203949  15.198028  -0.079263   0.182072   0.164122 
Mo   5.619148  19.197151  16.649250  -0.027186  -0.320269   0.068858 
Mo   8.344791  20.773750  16.636271   0.044875   0.697576   0.195218 
S    7.431563  19.141133  18.303310   0.555720   0.243710  -1.032069 
S   10.193124  20.684305  18.175077   0.482274   0.645886  -0.058414 
S   10.167670  20.816644  14.995381   0.187359   0.333769   0.141979 
S    7.469077  19.220888  15.035711  -0.444364  -0.327979  -0.087622 
Mo  11.171141  19.193655  16.515996  -0.757003  -0.627870   0.100287 
Mo  13.939075  20.788080  16.593513  -0.008200  -0.021512  -0.173262 
S   12.923522  19.181506  18.143216   0.933519  -0.392479  -0.026002 
S   15.769144  20.830789  18.236743  -0.369792  -0.468515   0.389084 
S   15.845699  20.829870  15.065884  -0.194641  -0.058896   0.176505 
S   12.982008  19.221190  14.930726   0.905781  -0.389026   0.410229 
Mo  16.661322  19.181410  16.698047   0.864727  -0.305026  -0.884856 
Mo  19.424045  20.765221  16.728365  -0.300906   0.007881  -0.179664 
S   18.483300  19.151652  18.364302  -0.148292   0.048266  -0.778749 
S   21.132867  20.736161  18.371914   1.075810   0.130207   0.323033 
S   21.295013  20.783821  15.167209   0.304355   0.036884   0.321312 
S   18.561598  19.200695  15.091966  -0.290116  -0.450912   0.424628 
Mo  22.221380  19.199680  16.802668   0.031604   0.245170  -0.180590 
Mo  25.082440  20.791127  16.889424   0.077773   0.385187   0.204740 
S   24.018128  19.169197  18.427342   0.423816   0.495108   0.261036 
S   26.981560  20.720288  18.465230  -0.753669   0.486235   0.191134 
S   26.993887  20.798195  15.257335  -0.880585   0.228462   0.350653 
S   24.157655  19.289025  15.284223  -0.252298  -0.387352  -0.460681 
Mo  27.852618  19.184447  16.835294   0.484215  -0.265034  -0.025905 
Mo  30.625028  20.797299  16.862815  -0.661182   0.276946  -0.022868 
S   29.712047  19.219775  18.485919  -0.010087  -0.455722  -0.463384 
S   32.457951  20.843399  18.412883   0.488192   0.034751   0.392870 
S   32.428943  20.914159  15.267630   0.328294  -0.869321  -0.403442 
S   29.727568  19.195389  15.280516   0.055824  -0.324097  -0.247680 
Mo   0.070395  22.421898  16.795728   0.459638  -0.198497   0.108140 
Mo   2.852111  24.046837  16.786825   0.265495  -0.927986   0.179938 
S    1.910178  22.466666  18.398985   0.261096  -0.412735   0.012600 
S    4.742492  24.020552  18.374981  -0.130121  -0.323145  -0.167354 
S    4.704828  24.092589  15.209190  -0.149966  -0.521064  -0.426115 
S    1.926835  22.398370  15.160824   0.034888   0.190187   0.782950 
Mo   5.631214  22.397052  16.734714  -0.403684   0.930734   0.092277 
Mo   8.434139  24.029071  16.756693  -0.515108  -0.695622   0.271088 
S    7.472578  22.393241  18.287899   0.411990  -0.260561   0.004399 
S   10.296729  23.944590  18.337207   0.143113  -0.020433  -0.625651 
S   10.239928  24.047551  15.141297  -0.049900  -0.489048  -0.758949 
S    7.419312  22.523545  15.071705   0.375541  -0.549590   0.586338 
Mo  11.208243  22.374875  16.619783  -1.220599  -0.047799   0.431058 
Mo  13.953505  23.964822  16.671853  -0.333472  -0.377379  -0.084105 
S   12.997982  22.313801  18.227479   0.280466   0.192035   0.098045 
S   15.689499  23.882941  18.322613   0.680901   1.041812  -0.136399 
S   15.848489  24.055813  15.045055  -0.521093  -0.652439   0.541259 
S   13.030562  22.418019  14.998871   0.168700  -0.089503   0.313075 
Mo  16.729909  22.417651  16.714591  -0.483067   0.053569  -0.964060 
Mo  19.516647  23.997799  16.764411  -0.214880  -0.204386  -0.597642 
S   18.546813  22.404920  18.306246   0.016331  -0.114628   0.354023 
S   21.365674  24.015912  18.408707  -0.302514  -0.188763  -0.050356 
S   21.391400  23.955574  15.215587   0.102564   0.386888   0.140728 
S   18.561680  22.411210  15.135685   0.433702   0.111775  -0.098904 
Mo  22.216651  22.348310  16.846576   0.460400   0.450705   0.135013 
Mo  25.067152  24.075351  16.890939  -0.544423  -0.526623   0.167915 
S   24.117845  22.403417  18.475291  -0.125253   0.066189  -0.422698 
S   26.897085  24.093740  18.508127   0.139967  -0.327755  -0.230519 
S   26.917425  24.049414  15.330318  -0.050644  -0.351890  -0.488397 
S   24.127829  22.423702  15.328797   0.268319  -0.093142  -0.098075 
Mo  27.787761  22.412515  16.916359   0.955372   0.123409  -0.068181 
Mo  30.648736  23.946392  16.837512   0.158510   0.847403   1.151976 
S   29.708703  22.383645  18.464504  -0.217404   0.218363  -0.024932 
S   32.519154  23.994868  18.465084  -0.413916   0.172189  -0.165736 
S   32.523779  24.039724  15.227634  -0.332441   0.286006   0.450194 
S   29.625886  22.385174  15.284708   0.087662   0.021564  -0.030098 
