288
Lattice="33.330681 0.035015 0.030874 0.026944 25.655434 -0.000664 0.027097 9e-05 30.475387 " PBC="1 1 1" Properties="species:S:1:pos:R:3:force:R:3" Energy=" -5.285627"
Mo   0.070032  -0.166612  16.906942  -0.923088   0.436423  -0.564419 
Mo   2.793592   1.478472  16.862965  -0.117007   0.626071  -0.039153 
S    1.891394  -0.146289  18.430127   0.516924   0.074765   0.732527 
S    4.691937   1.521174  18.397098   0.114457  -0.169261   0.196850 
S    4.582682   1.524153  15.213792  -0.042374   0.384846  -0.389736 
S    1.889844  -0.106139  15.240935  -0.255080  -0.219897   0.234780 
Mo   5.591818  -0.022062  16.722944   0.376307  -0.724446   0.454623 
Mo   8.344356   1.548092  16.628893   0.968674   1.025116   0.526994 
S    7.502249  -0.061200  18.219560  -0.024056  -0.103016   0.165650 
S   10.198198   1.621147  18.243793   0.157996  -0.613174  -0.049041 
S   10.252646   1.671858  15.054520  -0.082848  -0.193884   0.233648 
S    7.406960   0.018675  15.050174  -0.212769  -0.515982  -0.263071 
Mo  11.144606   0.003009  16.607332  -0.265993  -0.074080   1.396523 
Mo  13.907373   1.621310  16.761564   0.456697  -0.166968  -0.419783 
S   12.980229  -0.009222  18.283340  -0.423487   0.017990   0.260179 
S   15.738199   1.679324  18.353215   0.189380  -0.238144   0.177397 
S   15.773944   1.597299  15.231194   0.394676  -0.200872  -0.299108 
S   13.028801  -0.001436  15.167595   0.450366   0.078860  -0.797561 
Mo  16.675378  -0.020366  16.832686   0.059118   0.272890   0.110186 
Mo  19.517756   1.561847  16.865135  -1.035377   0.364980   0.626416 
S   18.527353   0.008633  18.480111  -0.152246  -0.148241  -0.276352 
S   21.362587   1.561134  18.499237  -0.384520  -0.111680   0.107128 
S   21.328287   1.518407  15.293105   0.459001   0.471664  -0.040662 
S   18.510834  -0.010249  15.300751   0.411793   0.046645  -0.438738 
Mo  22.253481  -0.056174  16.905459  -0.490539   0.357414  -0.301188 
Mo  25.026003   1.531524  16.910232   0.540901   0.115283  -0.393085 
S   24.066292  -0.050401  18.484278   0.483213  -0.194185   0.210256 
S   26.883615   1.564397  18.573079  -0.247811  -0.404925  -0.271517 
S   26.883214   1.474274  15.292671   0.192461   0.453556   0.837307 
S   24.076330  -0.019146  15.271740   0.300844  -0.193875   0.280377 
Mo  27.800384  -0.080272  16.974090  -0.401660   0.134179  -0.636892 
Mo  30.647114   1.500220  16.917447  -1.000125  -0.323039  -0.295522 
S   29.643957  -0.095121  18.481457   0.400679   0.333236   0.872277 
S   32.429678   1.510564  18.512316   0.596333  -0.073018   0.118758 
S   32.447514   1.431929  15.305365   0.383691   0.379917   0.181523 
S   29.620324  -0.096129  15.351290   0.366486  -0.026247  -0.014020 
Mo   0.006419   3.090164  16.881511   0.244231  -0.174394  -0.251766 
Mo   2.797453   4.678433  16.878655  -0.738433   0.719184  -0.734942 
S    1.898074   3.121314  18.489654  -0.255128  -0.481912  -0.262377 
S    4.689430   4.733439  18.350585   0.115814  -0.289592   0.933478 
S    4.617399   4.679118  15.256146  -0.241703   0.137125  -0.549451 
S    1.835991   3.097512  15.289502   0.109849  -0.192734  -0.042256 
Mo   5.596237   3.101327  16.788036  -0.445177   0.383724  -0.166594 
Mo   8.418611   4.759422  16.651783  -1.107287   0.334828   0.576119 
S    7.498241   3.173683  18.270540   0.214529  -0.318096   0.122810 
S   10.239644   4.814746  18.273112   0.129241  -0.143246   0.106393 
S   10.230857   4.765663  15.055597   0.336255   0.117674   0.290874 
S    7.358211   3.167028  15.116443   0.238297   0.055751  -0.355430 
Mo  11.204361   3.207146  16.726302  -0.240973   0.417178  -1.428680 
Mo  13.948546   4.821498  16.695569   0.111991   0.166479  -0.128282 
S   13.008217   3.211616  18.312379   0.098128   0.561570   0.304815 
S   15.803784   4.838886  18.284862  -0.445193   0.184317   0.339724 
S   15.826428   4.745232  15.059024  -0.320276   0.229639   0.275783 
S   13.171758   3.232571  15.087192  -1.213897  -0.345514   0.265347 
Mo  16.730957   3.255440  16.761223  -0.337794  -1.239746  -0.363758 
Mo  19.486856   4.784955  16.783068   0.408600  -0.102429  -0.272283 
S   18.487930   3.235890  18.413367   0.689067  -0.088054  -0.145169 
S   21.337881   4.804217  18.444215  -0.400869  -0.013407  -0.097159 
S   21.428270   4.733426  15.241327  -0.618978  -0.020520   0.192407 
S   18.606298   3.116602  15.219322   0.158712   0.275626  -0.048594 
Mo  22.242440   3.142709  16.919933   0.693762   0.200844  -0.430862 
Mo  25.024499   4.773691  16.804648   0.943137  -0.322226   0.867964 
S   24.219257   3.174769  18.448398  -1.102456   0.141713   0.322804 
S   26.831870   4.795188  18.465619   0.151365  -0.453544   0.086896 
S   26.993136   4.664649  15.287399  -0.712937   0.152978  -0.024548 
S   24.077185   3.144094  15.331303   0.167293  -0.413288  -0.598132 
Mo  27.815056   3.108571  16.967296   0.280553  -0.202888  -1.092432 
Mo  30.572975   4.759133  16.882623  -0.233896  -0.216700   0.812005 
S   29.692686   3.059626  18.498803   0.068526   0.891827   0.097508 
S   32.410650   4.750595  18.446936  -0.009636   0.161829   0.688187 
S   32.410239   4.769114  15.311995   0.027680  -0.242768  -0.208907 
S   29.721969   3.087417  15.335193  -0.596554   0.185172   0.002145 
Mo  -0.040069   6.350119  16.865025   0.712073   0.254311   0.202129 
Mo   2.825029   7.870350  16.811148   0.110518   0.446106  -0.425313 
S    1.868286   6.366799  18.434345  -0.099160  -0.653417   0.011312 
S    4.736665   7.946293  18.404277  -0.638711  -0.348247  -0.041644 
S    4.648545   7.925521  15.163834  -0.189210  -0.173103   0.478716 
S    1.768255   6.259427  15.220536   0.589615   0.190004   0.727192 
Mo   5.565152   6.315263  16.779111   0.091502   0.387699  -0.244368 
Mo   8.233010   8.006097  16.705097   1.476233  -0.503549   0.178870 
S    7.428054   6.327386  18.328379   0.414882   0.033291  -0.347139 
S   10.141737   7.970900  18.249769   0.309445   0.287521  -0.068931 
S   10.145230   8.033573  15.075166  -0.166173  -0.159111   0.530121 
S    7.349922   6.368729  15.150572   0.202107  -0.215225  -0.419868 
Mo  11.112922   6.397600  16.656310   0.472210   0.043110  -0.041696 
Mo  13.969443   7.968826  16.573975  -0.137552  -0.165222   0.717286 
S   13.051823   6.515605  18.272699  -0.649685  -0.786697  -0.488257 
S   15.799243   7.974285  18.215286  -0.143900   0.212313  -0.195478 
S   15.808173   7.980860  14.961750   0.220439  -0.121532   0.443811 
S   12.937421   6.363251  15.004975   0.387404  -0.147859   0.746512 
Mo  16.698302   6.366308  16.628526   0.140185   0.590375  -0.144495 
Mo  19.457476   7.962015  16.685786   0.103962   0.024436   0.795541 
S   18.456631   6.362499  18.296050   0.375339   0.413107   0.003730 
S   21.244178   7.923417  18.337516   0.055663   0.405457   0.524608 
S   21.356084   7.961216  15.186985   0.413136  -0.048106  -0.169539 
S   18.584966   6.393628  15.096555   0.204339  -0.829527  -0.050515 
Mo  22.261222   6.378024  16.820306   0.246164  -0.585993  -0.458381 
Mo  25.102177   7.978064  16.874076  -1.061221  -0.340642   0.390891 
S   24.053770   6.319502  18.445011   0.534966   0.659175  -0.191644 
S   26.898351   7.936258  18.518659  -0.035927  -0.141395  -0.350506 
S   26.917264   7.948064  15.282944   0.210574   0.294837   0.362390 
S   24.178278   6.367740  15.253690  -0.422455   0.482996  -0.190370 
Mo  27.816149   6.311050  16.873698  -0.030144   1.221677   0.746917 
Mo  30.564041   7.987084  16.924130  -0.157962  -0.412809   0.390679 
S   29.641980   6.366975  18.547120   0.022782  -0.260846  -0.709962 
S   32.411153   8.117436  18.492080   0.197137  -1.244123   0.361611 
S   32.359545   7.991842  15.314176   0.420101   0.341478   0.035387 
S   29.634169   6.381966  15.329828   0.444707  -0.197930  -0.483526 
Mo   0.064232   9.574097  16.897955  -0.252917  -0.297354  -0.771007 
Mo   2.757923  11.175119  16.777606   0.879854  -0.688727   0.884621 
S    1.979592   9.479029  18.406602  -0.334265   0.532420   0.170979 
S    4.667057  11.163117  18.359039  -0.342987   0.240560   0.010472 
S    4.570583  11.076594  15.143398   0.069968   0.452234   0.298170 
S    1.885837   9.504262  15.260137  -0.288056  -0.094591  -0.261551 
Mo   5.547962   9.557211  16.804990  -0.327702  -0.034626  -0.839364 
Mo   8.338006  11.136170  16.680854  -0.012438   0.735818   0.001711 
S    7.414159   9.617901  18.328038   0.063410  -0.274750   0.314376 
S   10.159439  11.097114  18.290628   0.526509   0.440081  -0.035234 
S   10.214667  11.179255  15.071388  -0.169401  -0.600297   0.186626 
S    7.306095   9.585286  15.159704   0.258428  -0.071458  -0.767256 
Mo  11.201708   9.585421  16.681771  -1.399294  -0.536453  -0.368296 
Mo  13.938811  11.137141  16.597205  -0.867517   0.459930  -0.751362 
S   13.069397   9.576386  18.221183  -0.044905  -0.275160   0.048620 
S   15.685237  11.200110  18.174627   0.951808  -0.165676   0.551344 
S   15.791657  11.195908  15.012951   0.058166   0.051031  -0.100939 
S   13.007295   9.472373  15.038706  -0.165522   0.926965  -0.456113 
Mo  16.693589   9.591634  16.613531   0.036473   0.044443  -0.530137 
Mo  19.517836  11.195737  16.725122  -0.147153  -0.243924  -0.575054 
S   18.448163   9.583525  18.219863   0.640549   0.069742   0.633466 
S   21.318987  11.175247  18.345957   0.127159  -0.197810   0.266262 
S   21.429047  11.212983  15.172980  -0.045978  -0.643543   0.326012 
S   18.685821   9.615954  15.112278  -0.777383  -0.142451  -0.460612 
Mo  22.295457   9.523636  16.823338  -0.323728   1.148257  -0.114504 
Mo  25.088461  11.234388  16.935881   0.052515  -0.671528  -0.969126 
S   24.155639   9.603363  18.485804  -0.391906  -0.458479  -0.361921 
S   26.921272  11.236766  18.557424  -0.061325   0.053138   0.055060 
S   26.940678  11.240485  15.334671  -0.003937  -0.055284   0.235715 
S   24.157755   9.611325  15.290979   0.461938  -0.101937   0.109045 
Mo  27.754376   9.618040  16.966172   1.197674  -0.880572  -0.527905 
Mo  30.608207  11.191930  16.957035   0.263604  -0.053616  -0.663488 
S   29.688572   9.589422  18.495741  -0.575398   0.045043   0.617653 
S   32.494065  11.259533  18.497228   0.084152  -0.290259   0.306869 
S   32.453472  11.202539  15.370183  -0.012529  -0.046660  -0.455178 
S   29.629095   9.564985  15.401600  -0.140104   0.544430  -0.537789 
Mo   0.094614  12.795961  16.869854  -1.153181   0.252561  -0.011254 
Mo   2.768516  14.361915  16.805810   0.737066  -0.315757  -0.480149 
S    1.875717  12.766879  18.446055   0.702063   0.028169  -0.018683 
S    4.703803  14.300099  18.318586  -0.477073  -0.007125   0.290714 
S    4.576892  14.275590  15.106545  -0.247656   0.177136   0.309752 
S    1.835423  12.755293  15.211040   0.092132   0.261659  -0.222901 
Mo   5.557205  12.726475  16.705377   0.032671  -0.358551   0.090702 
Mo   8.365806  14.374383  16.585118  -0.356504  -0.429498   1.076603 
S    7.489764  12.836513  18.258487  -0.314273  -0.514574  -0.199614 
S   10.199609  14.347368  18.206862  -0.004291   0.479370   0.313203 
S   10.221014  14.300096  15.092779   0.236430   0.390107  -0.816670 
S    7.361476  12.744956  15.087789   0.295545  -0.231132  -0.266878 
Mo  11.102892  12.723474  16.694151   0.479023  -0.189045  -0.508002 
Mo  13.875954  14.310846  16.600638   0.693404   1.552671   0.389531 
S   12.992466  12.743725  18.192656   0.066843  -0.330460   0.431570 
S   15.772274  14.380673  18.285515  -0.234956   0.290464  -1.018268 
S   15.701683  14.462087  15.014450   0.552400  -0.497103   0.359537 
S   12.945232  12.746812  15.009999  -0.189706  -0.377156   0.246505 
Mo  16.662838  12.812827  16.631923   0.807267   0.044409  -0.251129 
Mo  19.528341  14.351248  16.647018  -0.354360   0.828975   0.200683 
S   18.555924  12.761989  18.257826  -0.416916   0.483877  -0.021698 
S   21.268584  14.393167  18.346128   0.443833   0.069237  -0.350371 
S   21.480250  14.310831  15.100149  -0.448482   0.575281   0.371973 
S   18.595125  12.784886  15.062057  -0.201739  -0.178788   0.249646 
Mo  22.290145  12.790459  16.800357   0.873907   0.030861  -0.003105 
Mo  25.121191  14.382505  16.888390  -0.337030   0.282942   0.397189 
S   24.137276  12.782118  18.452588  -0.552150   0.613848   0.376577 
S   26.940499  14.365622  18.538438  -0.041747   0.567782   0.000849 
S   26.998582  14.387735  15.366109   0.011697   0.296319  -0.292449 
S   24.248652  12.790482  15.256010  -0.407891   0.068455   0.332517 
Mo  27.923709  12.816726  16.958758  -0.871942  -0.448033   0.089333 
Mo  30.684355  14.371045  16.860124  -0.956380   0.619287   1.522175 
S   29.776109  12.783650  18.540048  -0.150449   0.512815   0.016198 
S   32.534761  14.435814  18.562031  -0.425004  -0.240391  -0.833702 
S   32.453936  14.420677  15.300923   0.578330  -0.013887  -0.369809 
S   29.671307  12.755690  15.324145   0.741245   0.099250  -0.279407 
Mo   0.047743  15.989516  16.878898   0.410189   0.076184   0.190324 
Mo   2.875476  17.553878  16.747502  -0.075239  -0.017099   0.771605 
S    1.984077  15.970695  18.435394  -0.377799   0.276995  -0.457418 
S    4.784081  17.476813  18.305902  -0.285139   0.449907  -0.108877 
S    4.717589  17.518541  15.131019  -0.501865  -0.150811  -0.304216 
S    1.844911  16.007393  15.192655  -0.054992  -0.302394   0.351843 
Mo   5.558890  15.858160  16.702098   0.403082   0.838434  -0.379592 
Mo   8.397273  17.532881  16.623551  -0.541848   0.248869   0.016418 
S    7.426912  15.912476  18.239135   0.526568   0.285558  -0.026478 
S   10.236100  17.533007  18.207870   0.091419   0.192250   0.130647 
S   10.248786  17.519724  15.018138  -0.221289   0.358053  -0.035610 
S    7.355026  15.945540  15.084415   0.270981  -0.024269  -0.636517 
Mo  11.163260  15.967553  16.615374  -0.073992  -0.694847  -0.056023 
Mo  13.927329  17.587017  16.653067  -0.723381   0.743033  -0.430061 
S   12.988715  15.961649  18.192290   0.221702  -0.272800   0.206706 
S   15.785099  17.626177  18.249237  -0.075085  -0.293298  -0.001972 
S   15.735213  17.670157  15.048633   0.363069  -0.571134  -0.074359 
S   13.007201  15.974964  14.992841   0.057134  -0.023369   0.500650 
Mo  16.696999  16.031733  16.630820  -0.278164  -0.535384   0.502135 
Mo  19.496501  17.609840  16.663360  -0.284759  -0.472655   0.207798 
S   18.574335  15.982083  18.260056  -0.134954  -0.147603  -0.566320 
S   21.307824  17.604555  18.288477   0.017023  -0.315772   0.303014 
S   21.362164  17.626719  15.154764   0.546725  -0.212966  -0.303248 
S   18.562108  15.986245  15.056006   0.327429  -0.046110   0.223996 
Mo  22.306544  15.967008  16.735656  -0.277493   0.211006   0.545306 
Mo  25.081212  17.636573  16.840454   0.232939  -0.558177   0.534719 
S   24.111212  16.024666  18.446433  -0.011794  -0.139542  -0.517119 
S   26.892485  17.574837  18.551240  -0.255757   0.550008  -0.389043 
S   27.020054  17.629500  15.294298  -0.514993   0.078324   0.398295 
S   24.250404  15.986428  15.274404  -0.127267  -0.042161  -0.393971 
Mo  27.846910  16.038107  16.961412  -0.025792  -0.630064  -0.071946 
Mo  30.595978  17.687389  17.003341   0.035312  -0.725137  -0.042743 
S   29.714628  15.970134  18.506145   0.237867  -0.052095   0.048485 
S   32.522253  17.631932  18.533754  -0.281954   0.158497   0.053860 
S   32.374380  17.650379  15.402749   0.426416   0.176707  -0.491894 
S   29.660400  16.076964  15.379894   0.604590  -0.080088  -0.109270 
Mo   0.086392  19.216452  16.902345   0.163079  -0.693094   0.309404 
Mo   2.879099  20.758793  16.847099   0.138184  -0.482721  -0.367895 
S    2.026084  19.120608  18.433055  -0.177201   0.198407  -0.116639 
S    4.877680  20.703434  18.278915  -0.670677   0.152725   0.566836 
S    4.616534  20.722155  15.124848   0.363963   0.123340   0.288371 
S    1.895300  19.183301  15.244640  -0.026208   0.078572   0.013609 
Mo   5.684002  19.113540  16.669186  -0.229708  -0.051097   0.190847 
Mo   8.358023  20.763830  16.645415   0.084175   0.665634  -0.227815 
S    7.560906  19.170640  18.256985  -0.390592  -0.498220  -0.124725 
S   10.185753  20.771341  18.248194   0.451184   0.304318  -0.377966 
S   10.178413  20.766924  15.062033   0.364459   0.532243  -0.120932 
S    7.440904  19.143098  14.992342   0.364030   0.029722   0.591039 
Mo  11.125783  19.182834  16.615931  -0.328707  -0.396489   0.356827 
Mo  13.899898  20.797609  16.660425   0.314467   0.095610   0.255880 
S   12.911021  19.213303  18.250580   0.438516  -0.373248  -0.244889 
S   15.716535  20.733363  18.280378   0.301623   0.175638  -0.114389 
S   15.827254  20.802524  15.083216  -0.481280   0.420883   0.271544 
S   12.924553  19.247656  15.010356   0.655582  -0.456955   0.462552 
Mo  16.710990  19.196790  16.644085   0.346946   0.130039   0.773144 
Mo  19.510808  20.834070  16.715961  -0.973608  -0.343909   0.359469 
S   18.605381  19.175665  18.284484  -0.593289   0.207853  -0.311408 
S   21.261487  20.843644  18.427984   0.259867  -0.160996  -0.706923 
S   21.317746  20.853468  15.157383   0.531588  -0.077834  -0.078438 
S   18.570899  19.213972  15.063337   0.304294   0.182879   0.319507 
Mo  22.232308  19.233573  16.793258   0.476479   0.283220   0.037186 
Mo  25.055962  20.803897  16.891173  -0.111867   0.381264  -0.160174 
S   24.111756  19.205598  18.419378  -0.481214  -0.060416   0.285937 
S   26.867577  20.829404  18.560520  -0.237062   0.002166  -0.362678 
S   26.937492  20.741193  15.283958  -0.324073   0.433335   0.233110 
S   24.131920  19.242870  15.279053   0.155382  -0.204034  -0.404851 
Mo  27.805533  19.245365  16.969223   0.609255  -0.530763   0.359816 
Mo  30.668266  20.858651  17.039600  -0.619806  -0.103332   0.275213 
S   29.672690  19.256020  18.600446  -0.057159   0.056539   0.153334 
S   32.544007  20.862157  18.570374  -0.129637  -0.588837   0.487000 
S   32.449713  20.821653  15.370641   0.119033   0.005150  -0.028320 
S   29.688247  19.345663  15.440443   0.184131  -0.518873  -0.273949 
Mo   0.068568  22.353690  16.936856   0.595136   0.182165  -0.116359 
Mo   2.843727  23.957609  16.834466   0.262739  -0.593202  -0.269855 
S    1.987669  22.299722  18.503194   0.058538   0.469757  -0.480618 
S    4.768618  23.986912  18.328512  -0.026573  -0.328126  -0.040505 
S    4.691626  24.017809  15.188528  -0.494820  -0.362903  -0.186409 
S    1.864245  22.324512  15.262780   0.196607   0.329144   0.328205 
Mo   5.640834  22.344473  16.695165  -0.037499   0.885594  -0.178762 
Mo   8.428833  24.016746  16.555888  -0.785493  -0.197345   0.743753 
S    7.490304  22.477501  18.266439   0.392094  -0.648257  -0.694967 
S   10.213402  23.998654  18.203850   0.372607   0.362443  -0.221002 
S   10.271508  24.088297  14.981982   0.309268  -0.542676   0.155324 
S    7.411242  22.383162  15.018740   0.236015  -0.045054   0.296141 
Mo  11.192921  22.429140  16.642236  -0.981730  -0.366885   0.251769 
Mo  13.988456  24.048554  16.744434  -0.179872  -0.418025   0.113561 
S   13.040531  22.454074  18.310584  -0.377957  -0.578849  -0.543913 
S   15.833103  24.020576  18.424220  -0.476212  -0.331769  -0.546457 
S   15.808985  24.001598  15.157205   0.375580   0.419792   0.234365 
S   13.031644  22.424338  15.126073   0.397547   0.454401  -0.553336 
Mo  16.707771  22.399406  16.758510  -0.193134   0.064523  -0.342078 
Mo  19.465255  24.034709  16.878265  -0.449881   0.117193  -0.928607 
S   18.508748  22.376896  18.347337   0.219461  -0.175432   0.318480 
S   21.246407  24.016962  18.468874   0.629292  -0.343386  -0.074232 
S   21.286017  24.130284  15.247275   0.163629  -0.597898   0.095511 
S   18.584394  22.464345  15.146253  -0.032842   0.077669   0.499320 
Mo  22.183800  22.436844  16.782838   0.358138   0.105382   0.456736 
Mo  25.068124  24.022514  16.870591  -0.665375  -0.072312   0.072646 
S   24.010878  22.468902  18.379747   0.333399  -0.602455   0.496095 
S   26.917663  23.957205  18.550910  -0.509528   0.104997  -0.466419 
S   26.918123  24.012759  15.331299   0.232813  -0.297689  -0.246417 
S   24.125342  22.370792  15.267526   0.078675   0.576995   0.079700 
Mo  27.793190  22.365592  16.902206   1.008518   0.522241   0.664732 
Mo  30.612663  23.977851  16.948850   0.476715   0.597820   1.228548 
S   29.634325  22.461639  18.610846   0.062604  -0.441698  -0.544050 
S   32.498237  23.978304  18.611800  -0.226688   0.056785  -0.588079 
S   32.408463  23.897111  15.361392   0.611421   0.664141  -0.116294 
S   29.792727  22.417737  15.435383  -1.204609  -0.589610  -1.005541 
