288
Lattice="33.329002 0.034843 0.030866 0.026811 25.655173 -0.000664 0.02709 9e-05 30.625427 " PBC="1 1 1" Properties="species:S:1:pos:R:3:force:R:3" Energy=" -5.284698"
Mo   0.085717  -0.050067  16.708791   0.343833   0.200620  -1.059971 
Mo   2.941483   1.506802  16.752169  -1.235961  -0.015770   0.405578 
S    1.885100  -0.061150  18.330683   0.669142  -0.128131  -0.235515 
S    4.707211   1.550808  18.407948   0.321194  -0.219474  -0.121550 
S    4.771172   1.440410  15.195114   0.349918   0.370908  -0.051251 
S    1.989190  -0.057965  15.140030  -0.077175  -0.176510   0.105902 
Mo   5.689872  -0.087409  16.865417  -1.215472  -0.019503  -0.385822 
Mo   8.413403   1.546923  16.756812   0.454558  -0.337578   0.754646 
S    7.441757  -0.022488  18.435352   1.192215  -0.114596   0.023086 
S   10.207774   1.571587  18.426300   0.091592  -0.313535   0.188108 
S   10.390099   1.487393  15.263426  -0.378745   0.238037   0.285802 
S    7.514385  -0.116876  15.277442   0.290206  -0.330890  -0.484820 
Mo  11.222307  -0.083814  16.955605   0.921510   0.362601  -1.009455 
Mo  13.968559   1.536968  16.987031   0.642773  -0.275482  -1.206691 
S   13.098162  -0.103377  18.538984  -0.162359  -0.033635   0.184610 
S   15.832776   1.495974  18.509009   0.504470   0.053988  -0.206433 
S   15.806041   1.652364  15.321608  -0.460561  -0.898061  -0.230457 
S   13.121283  -0.072424  15.328223  -0.239386   0.034230   0.582219 
Mo  16.793918  -0.052326  16.791222  -0.265319   0.188291   0.092406 
Mo  19.522660   1.596985  16.738141   0.193458  -0.626275   0.633546 
S   18.671705   0.008048  18.363150  -0.057739  -0.211848  -0.098414 
S   21.379695   1.518233  18.351677  -0.190173   0.173954   0.126992 
S   21.400395   1.550863  15.185522  -0.157955  -0.267278  -0.173983 
S   18.603681  -0.072928  15.148495   0.335353   0.196354   0.459078 
Mo  22.357174  -0.081392  16.789280  -0.500950   0.635436  -0.351878 
Mo  25.149323   1.588626  16.789647  -0.483116  -0.288488   0.853086 
S   24.128415  -0.008542  18.373240   0.722594   0.100238   0.409509 
S   26.970080   1.535231  18.405370   0.152373   0.369587   0.149639 
S   26.968152   1.545697  15.227409  -0.028891   0.374724  -0.800767 
S   24.250200   0.050228  15.223506  -0.407957  -1.081257  -0.311195 
Mo  27.914982  -0.004924  16.785377  -0.478251  -0.702867  -0.129893 
Mo  30.617230   1.574379  16.657602   0.639656   0.265018   0.461748 
S   29.772824  -0.011560  18.353484   0.100348   0.089214  -0.167986 
S   32.484703   1.667589  18.237558  -0.177537  -0.616538   0.366025 
S   32.485306   1.557166  15.071589   0.256800   0.339744   0.364940 
S   29.646333   0.004955  15.089089   0.676979  -0.627049   0.393908 
Mo   0.131937   3.174968  16.663484  -0.307507  -0.618226  -0.012700 
Mo   2.959953   4.649656  16.806238  -0.755795   0.436244  -0.296905 
S    1.889653   3.048677  18.366856   0.549851   0.343579  -0.437969 
S    4.739368   4.626410  18.452784   0.419676   0.824760  -0.740585 
S    4.751636   4.718681  15.161107   0.438982   0.288641   0.773358 
S    2.055577   3.121836  15.157087  -0.116316  -0.173482  -0.205536 
Mo   5.684851   3.106875  16.776040   0.031716  -0.070381   0.078579 
Mo   8.430969   4.691871  16.795432   0.003728   0.454377   0.574103 
S    7.519560   3.098306  18.416280  -0.275526   0.171481  -0.547644 
S   10.240115   4.704008  18.501167   0.088104  -0.109407  -0.475158 
S   10.379681   4.759956  15.291980  -0.383468  -0.372208   0.036171 
S    7.484721   3.115048  15.124021   0.405107   0.042848   0.532050 
Mo  11.249129   3.120487  16.893416  -0.264139   0.175359  -0.238782 
Mo  13.997902   4.739457  16.936180  -0.230418  -0.377994   0.114427 
S   13.050563   3.106164  18.542238  -0.111540   0.417181   0.067235 
S   15.868595   4.779815  18.549077  -0.563955  -0.508377  -0.013008 
S   15.838587   4.830078  15.336455  -0.315714  -0.506427  -0.040899 
S   13.128779   3.102508  15.313324  -0.226768   0.240031   0.346574 
Mo  16.716302   3.148281  16.905267   0.808233   0.941319   0.395796 
Mo  19.491332   4.774516  16.807654   1.055242  -0.231340   1.062460 
S   18.624397   3.197814  18.434063   0.029113  -0.566546  -0.247432 
S   21.431279   4.731477  18.321737  -0.467514   0.092357   0.812651 
S   21.426099   4.779577  15.222353  -0.550360   0.087702  -0.024388 
S   18.556224   3.211403  15.249032  -0.362041  -0.046022  -0.479173 
Mo  22.297333   3.120237  16.786309   1.294750   0.129133   0.193248 
Mo  25.106664   4.786880  16.747214  -0.322804  -0.345290   0.302069 
S   24.230174   3.122178  18.444314  -0.496272   0.618977  -1.000654 
S   26.966064   4.769121  18.336463  -0.193015  -0.101242   0.366687 
S   27.000370   4.810723  15.198700  -0.227583  -0.356518  -0.069143 
S   24.156575   3.118282  15.186773   0.093092   0.487855   0.117170 
Mo  27.893439   3.129774  16.793208  -0.174746   1.007310  -0.323509 
Mo  30.637427   4.802441  16.784189   0.667368  -0.493471   0.044567 
S   29.755110   3.119872  18.320722  -0.017715   0.173800   0.311477 
S   32.529113   4.773070  18.364071  -0.119182  -0.274741  -0.234989 
S   32.519507   4.821417  15.168679  -0.294102  -0.180534  -0.358484 
S   29.699903   3.267357  15.153734  -0.010049  -0.406675  -0.153196 
Mo   0.174109   6.285602  16.738483  -0.511214   0.581078  -0.085467 
Mo   2.891364   7.890368  16.814385  -0.078977   0.398222   0.309975 
S    1.946588   6.190652  18.360129   0.537937   0.521488   0.344589 
S    4.712443   8.014737  18.367381   0.262073  -0.622587   0.604461 
S    4.760418   7.928340  15.216216  -0.118457   0.359584  -0.060752 
S    2.069110   6.324723  15.205543  -0.144334  -0.517823  -0.337294 
Mo   5.681568   6.384942  16.832513  -0.759218  -1.820105   0.118700 
Mo   8.444109   7.894263  16.809156  -0.126358   0.334711   0.057332 
S    7.497647   6.361884  18.445798   0.158817  -0.708122  -0.466588 
S   10.230508   7.884403  18.436611   0.225436   0.429102   0.605846 
S   10.345444   7.932815  15.325074   0.076486  -0.130279  -0.412394 
S    7.480202   6.295097  15.213231   0.405621   0.317814  -0.010005 
Mo  11.238130   6.317154  16.940183  -0.552312  -0.356075  -0.549015 
Mo  13.890609   7.894350  16.916919   0.666516   0.695491   0.205523 
S   13.029336   6.303677  18.537457   0.093532   0.012015   0.268021 
S   15.694940   7.934286  18.559036   0.282033   0.078268   0.165940 
S   15.744313   7.962464  15.387649   0.427776   0.316187  -0.279871 
S   13.032588   6.278663  15.307031   0.195241   0.226513   0.071953 
Mo  16.671332   6.391572  16.968567   1.487214  -0.437304  -0.093104 
Mo  19.548307   7.921251  16.936002  -0.377271   0.150650   0.399429 
S   18.586520   6.284164  18.550063   0.112352   0.399547  -0.735561 
S   21.390681   7.902792  18.522493   0.416907   0.145561  -0.285680 
S   21.378741   8.009048  15.312832  -0.107273   0.236611   0.153997 
S   18.568728   6.370162  15.362831  -0.560859   0.589515  -0.769467 
Mo  22.365719   6.380372  16.832089  -0.806240  -0.040964  -0.747876 
Mo  25.078088   7.975032  16.776127  -0.207891   0.066633  -0.233666 
S   24.156659   6.365873  18.370574   0.697549  -0.178882   0.298977 
S   26.879030   7.918223  18.364248   0.655812   0.459856   0.524792 
S   26.960094   8.057481  15.204846   0.091200  -0.308243   0.291754 
S   24.154864   6.403721  15.129287   0.134315  -0.244321   0.592527 
Mo  27.906471   6.392554  16.804649  -0.394244   0.070631  -0.226228 
Mo  30.714757   7.920989  16.822469  -0.396465   0.264814   0.583137 
S   29.747816   6.352052  18.425692  -0.172610   0.053238  -0.025912 
S   32.594716   7.832842  18.423952  -0.402500   0.502415  -0.084507 
S   32.501296   7.908828  15.180575   0.469442   0.512424   0.435717 
S   29.717604   6.405689  15.230880   0.153836  -0.007156  -0.609379 
Mo   0.055065   9.507816  16.844342   0.525431  -0.000001  -0.077399 
Mo   2.940865  11.072275  16.897271  -1.441683   1.261983   0.184108 
S    1.919568   9.492695  18.420265   0.064346  -0.428325   0.311019 
S    4.740915  11.007768  18.476369   0.364049   0.632065   0.195023 
S    4.681387  11.155019  15.284102   0.815759  -0.152610  -0.353119 
S    1.940528   9.558776  15.324412  -0.102239  -0.319368  -0.764961 
Mo   5.705197   9.551025  16.804248   0.114889  -0.210926  -0.260519 
Mo   8.457550  11.161388  16.895062  -0.046930  -0.520084   0.239874 
S    7.537835   9.446557  18.461975  -0.105692   0.541604  -0.618859 
S   10.245057  11.164888  18.523896   0.428566  -0.102512  -0.116582 
S   10.376790  11.189794  15.339159  -0.469794  -0.147143  -0.033630 
S    7.618849   9.576240  15.209962  -0.349416  -0.034664   0.413653 
Mo  11.216467   9.542250  16.926363  -0.135043   0.516665   0.040426 
Mo  14.022473  11.204343  16.931251  -0.611494  -0.815422   0.428457 
S   13.038954   9.512268  18.519660   0.044912   0.578620  -0.116867 
S   15.760920  11.169287  18.589266   0.690298  -0.129195  -0.015836 
S   15.959766  11.205177  15.374422  -0.517846  -0.433681   0.594554 
S   13.077876   9.570341  15.327236  -0.080700   0.160697   0.190055 
Mo  16.757031   9.524737  17.028453  -0.704603   0.534287  -0.647897 
Mo  19.501160  11.165467  17.003765   0.068000  -0.883460  -0.273039 
S   18.609561   9.456592  18.609025   0.109918   0.251975  -0.460676 
S   21.335668  11.092132  18.549392   0.571494   0.974703   0.439353 
S   21.337544  11.246418  15.380784  -0.038635  -0.384422  -0.038089 
S   18.592415   9.545315  15.382265  -0.029995   0.065688   0.285432 
Mo  22.291255   9.608305  16.948278   0.088050  -0.893873  -0.632489 
Mo  25.098008  11.141897  16.842456  -0.110366   0.729488  -0.398464 
S   24.246693   9.582297  18.431522  -0.598129  -0.483688   0.256065 
S   26.884513  11.148606  18.431551   0.636690  -0.126648   0.565963 
S   26.983957  11.163409  15.214564  -0.251167   0.248851   0.794276 
S   24.075000   9.617724  15.255091   0.100788  -0.215815   0.023282 
Mo  27.905906   9.597454  16.865604  -0.046162  -0.729018  -0.131176 
Mo  30.645543  11.147232  16.909777   0.521552   0.150502   0.150706 
S   29.801848   9.489689  18.498937  -0.429603   0.014788  -0.493074 
S   32.545045  11.175375  18.531455  -0.452105  -0.518392  -0.263057 
S   32.488143  11.208251  15.320717   0.214095  -0.175566   0.215472 
S   29.791896   9.582220  15.279533  -0.288597  -0.074250   0.077746 
Mo   0.148631  12.737007  16.935840   0.178244  -1.259485  -0.401121 
Mo   2.948154  14.317150  16.882985  -0.312246  -0.325581   0.548167 
S    2.034591  12.722128  18.529498   0.069651  -0.224018  -0.471538 
S    4.770402  14.358366  18.460480   0.017595  -0.018896   0.395829 
S    4.772824  14.318619  15.309278   0.223093   0.456943  -0.078232 
S    1.967110  12.709840  15.280707   0.312816  -0.129993   0.569011 
Mo   5.645587  12.706646  16.915243   0.362065   0.015205  -0.297029 
Mo   8.422698  14.363993  16.968036   0.860961   0.139600  -0.620948 
S    7.458075  12.735298  18.527985   0.403826  -0.218908  -0.118956 
S   10.322285  14.467379  18.569973  -0.195417  -0.420942  -0.738712 
S   10.332189  14.364111  15.315447  -0.477443   0.466847   0.582712 
S    7.540572  12.759890  15.336481  -0.311392   0.165996   0.034841 
Mo  11.200894  12.806375  16.944860   0.713577  -0.109800   0.489347 
Mo  14.010960  14.401460  16.942865   0.058356   0.267994   0.324086 
S   13.044029  12.863545  18.553267   0.135751  -0.711019  -0.303991 
S   15.872977  14.441815  18.534542  -0.147105  -0.128307   0.495474 
S   15.869842  14.314595  15.427105   0.403942   0.651895  -0.389414 
S   13.106672  12.778255  15.362762  -0.390402   0.222394  -0.122369 
Mo  16.804055  12.778451  17.046469  -0.209349  -0.566055  -0.430348 
Mo  19.504647  14.347763  16.933811   0.958747   0.300083   0.913700 
S   18.632868  12.706175  18.642258  -0.059346   0.624389  -0.282619 
S   21.361780  14.398827  18.530987   0.207900  -0.153754   0.173186 
S   21.370368  14.396770  15.342080   0.115112  -0.125752   0.409076 
S   18.619214  12.744534  15.382715  -0.409781  -0.071487   0.021605 
Mo  22.303077  12.784996  16.969510  -0.407921  -0.238587   0.014419 
Mo  25.041473  14.346504  16.858400   0.852361   0.545865   0.339323 
S   24.169691  12.706074  18.518663   0.094780   0.289628  -0.330871 
S   26.867884  14.320750  18.471464   0.269940   0.409993   0.351167 
S   26.945887  14.311977  15.270117  -0.171604   0.581806   0.495730 
S   24.116591  12.763451  15.325719  -0.206531  -0.117139  -0.409998 
Mo  27.837372  12.774055  16.927972   0.093796  -0.885192  -1.027401 
Mo  30.660217  14.310530  16.904847  -0.109735   0.173565   0.064524 
S   29.712993  12.710171  18.494733  -0.178952   0.186829   0.306250 
S   32.512518  14.294654  18.521747  -0.309560   0.194355   0.657840 
S   32.527866  14.247026  15.361578  -0.008522   0.914618  -0.302608 
S   29.667357  12.740822  15.318145   0.370560  -0.007454   0.102258 
Mo   0.130264  15.848166  16.962777   0.477505   0.610775  -0.137512 
Mo   2.937897  17.564107  16.888177  -0.364685  -0.353269   0.616647 
S    2.070297  15.925539  18.489191  -0.446501  -0.117922   0.181046 
S    4.740084  17.552530  18.533147   0.166287   0.203731  -0.139081 
S    4.735037  17.581496  15.307177   0.319730  -0.096752  -0.427082 
S    1.994208  15.884020  15.384386  -0.341892   0.476800  -0.854289 
Mo   5.680678  16.006790  16.904229   0.252099  -0.818024  -0.105163 
Mo   8.515812  17.608576  16.932863  -0.234466  -0.648064   0.086442 
S    7.535520  15.963791  18.534663  -0.165837   0.451457  -0.223556 
S   10.353788  17.593698  18.594648  -0.282408  -0.405037  -0.576375 
S   10.366753  17.692534  15.297170  -0.294470  -1.268930   0.189288 
S    7.563990  15.976725  15.327184   0.005558   0.079249   0.395205 
Mo  11.290708  16.020655  16.906490  -1.380923   0.133864   0.231893 
Mo  14.080331  17.599410  16.942191   0.280303  -0.353146  -0.764230 
S   13.120947  16.087608  18.490063  -0.012404  -0.856419   0.577675 
S   15.917966  17.667953  18.544410   0.296001  -0.390894  -0.276809 
S   15.992878  17.592836  15.372884  -0.515280   0.012047  -0.272682 
S   13.086334  15.967412  15.323931   0.668610   0.319384  -0.121652 
Mo  16.900793  15.990343  16.962831  -1.781607   0.258961  -0.170890 
Mo  19.607833  17.594084  16.992277   0.044787  -0.401009  -0.432245 
S   18.647344  15.971534  18.570584   0.530751  -0.026174   0.134175 
S   21.508578  17.628399  18.592906  -0.249889  -0.111183  -0.581760 
S   21.446783  17.619315  15.389705  -0.219626  -0.416343  -0.218652 
S   18.674796  15.955971  15.330025   0.203344   0.315478   0.209542 
Mo  22.352995  15.980607  16.962806  -0.213669   0.336980  -0.086543 
Mo  25.103123  17.582630  16.865213   0.598410   0.094764   0.198990 
S   24.279342  16.005062  18.490395  -0.621692  -0.435734   0.024814 
S   26.980858  17.527680  18.498991  -0.157781   0.098824  -0.015298 
S   27.010712  17.554210  15.375175  -0.079283  -0.371155  -0.597499 
S   24.120674  16.010142  15.274312   0.267877  -0.351975   0.284229 
Mo  27.927407  15.911171  16.939165  -0.832052   0.068745  -0.553207 
Mo  30.713452  17.510556  16.929833  -0.435230   0.652952   0.906578 
S   29.758343  15.890519  18.529404   0.100087   0.280980  -0.062242 
S   32.617412  17.535387  18.603607  -0.435632   0.212849  -0.757838 
S   32.548450  17.475891  15.435507   0.482241   0.494501  -0.601458 
S   29.737574  15.967389  15.304114   0.329226  -0.458545   0.326052 
Mo   0.176365  19.164736  16.926430  -0.478104  -1.018654   0.372085 
Mo   2.898074  20.778353  16.847255   0.240397   0.071409  -0.608228 
S    2.075850  19.161705  18.501980  -0.494234   0.351382  -0.094566 
S    4.720654  20.831222  18.442182   0.383403  -0.311723   0.151456 
S    4.814699  20.782690  15.289888  -0.105652  -0.225290   0.167887 
S    1.965286  19.111547  15.316482   0.105467   0.412504  -0.461118 
Mo   5.674972  19.128703  16.908789  -0.008954   1.205061  -0.107683 
Mo   8.519920  20.786580  16.981403  -0.262571  -0.622063   0.509514 
S    7.505212  19.204425  18.485947   0.188841  -0.401116   0.638335 
S   10.361796  20.748353  18.604916   0.056033  -0.230169  -0.223283 
S   10.370044  20.712043  15.436729   0.004275   0.434831  -0.611297 
S    7.560975  19.186555  15.337105   0.101276   0.051112   0.192812 
Mo  11.278735  19.106786  16.960679   0.105747   1.602401   0.855339 
Mo  14.069677  20.770003  16.930593  -0.445075   0.553553   0.427432 
S   13.110093  19.126423  18.535625   0.481543   0.655122   0.260447 
S   15.945449  20.869853  18.471780  -0.038800   0.029155   0.265093 
S   15.869491  20.844115  15.307172  -0.063259  -0.714802  -0.641328 
S   13.137365  19.185067  15.403177  -0.060484  -0.250639  -0.886146 
Mo  16.831131  19.260547  16.915126   0.535800  -0.655266   0.254628 
Mo  19.597824  20.784689  16.887159   0.429720  -0.253970   0.601205 
S   18.701652  19.202022  18.545330  -0.301236   0.318659  -0.167932 
S   21.479137  20.860109  18.472050  -0.032694  -0.162314   0.144822 
S   21.454190  20.718022  15.387393   0.155714   0.845158  -1.339207 
S   18.689703  19.162965  15.333911  -0.098282  -0.061537  -0.008956 
Mo  22.399931  19.208503  16.914182   0.412328  -0.567672   1.260395 
Mo  25.225296  20.751621  16.895375  -1.261860   0.418016  -0.351503 
S   24.278269  19.177476  18.522215  -0.133559   0.198064  -0.383158 
S   27.030782  20.829616  18.464295   0.434758  -0.066471   0.036763 
S   27.053620  20.681180  15.312412  -0.025828   0.469414  -0.356519 
S   24.177143  19.202073  15.233001   0.453582  -0.085831   0.674474 
Mo  27.954841  19.126304  16.927105   0.084185   0.706610   0.254651 
Mo  30.646907  20.760106  16.877623   1.302762   0.236288   0.040113 
S   29.791011  19.175785  18.524655   0.105574  -0.314891  -0.155200 
S   32.576404  20.882733  18.467516  -0.353654  -0.077268  -0.293394 
S   32.524603  20.727358  15.322147   0.089439  -0.058832  -0.333246 
S   29.799701  19.171656  15.282430  -0.217014  -0.776947   0.442098 
Mo   0.152882  22.399885  16.736315   0.052421  -0.348860  -0.186357 
Mo   2.931108  23.956325  16.726674  -0.297844   0.725481   0.389100 
S    1.968882  22.437055  18.349274  -0.066940  -0.249116   0.213141 
S    4.687838  23.961134  18.403295   0.370529   0.240578   0.141611 
S    4.863484  23.980858  15.237698  -0.069084  -0.398293  -0.215964 
S    2.020600  22.378620  15.137665  -0.064938  -0.457695   0.250216 
Mo   5.745460  22.393475  16.877664   0.025393  -0.228087   0.142140 
Mo   8.512512  23.958937  16.880515   0.270471   1.198042   0.484596 
S    7.602835  22.483365  18.524760  -0.414525  -0.731575   0.104826 
S   10.353102  24.042611  18.516627  -0.434573  -0.747493   0.439722 
S   10.427284  23.971801  15.335621  -0.307843  -0.500695   0.194741 
S    7.679534  22.288806  15.393957  -0.638904   0.570219  -1.292957 
Mo  11.283076  22.335633  16.997012   0.209130   0.955087  -0.188730 
Mo  14.117395  23.988398  16.930767  -1.031167  -0.054786  -0.742414 
S   13.209843  22.410196  18.531823  -0.285201  -0.297516   0.176821 
S   16.003505  24.003335  18.416301   0.096085  -0.108052   0.230471 
S   15.839330  23.949495  15.193372   0.367268   0.538274   0.355861 
S   13.074826  22.405853  15.356112   0.342504  -0.334345   0.217709 
Mo  16.854805  22.403816  16.788578   0.046723   0.534682   1.012755 
Mo  19.666139  24.033441  16.801844  -0.629574  -0.674398  -0.631062 
S   18.719919  22.416048  18.404739  -0.207368   0.517978   0.109141 
S   21.444987  23.966662  18.413573   0.425674   0.514810   0.084987 
S   21.581619  23.944164  15.197841  -0.696344   0.103192   0.024103 
S   18.729336  22.344857  15.256701   0.166791   0.414396  -0.310721 
Mo  22.462412  22.401807  16.858892  -0.657151  -0.303325  -0.135990 
Mo  25.139247  24.030793  16.835183   0.252025   0.069223  -0.995362 
S   24.259908  22.429267  18.485615   0.359097  -0.196770  -0.373138 
S   26.964161  24.077151  18.355876   0.570860  -0.360514   0.414382 
S   26.992089  24.056452  15.149388  -0.144222  -0.439127   0.909943 
S   24.305307  22.363693  15.255571   0.090166  -0.081169   0.248423 
Mo  27.924497  22.415425  16.796971   0.049538   0.067592  -0.220001 
Mo  30.697249  24.029667  16.754635  -0.037952  -0.175254  -0.018404 
S   29.754707  22.378961  18.386663   0.004471   0.965386   0.191040 
S   32.616170  24.039060  18.302168  -0.895439   0.146839   0.625283 
S   32.526541  23.996627  15.118596   0.147318   0.055583   0.426743 
S   29.835078  22.381280  15.207786  -0.659555  -0.178674   0.162876 
