288
Lattice="33.333394 0.034864 0.030873 0.026827 25.652994 -0.000664 0.027095 9e-05 30.608259 " PBC="1 1 1" Properties="species:S:1:pos:R:3:force:R:3" Energy=" -5.285062"
Mo   0.103364  -0.072229  16.721203   0.032150   0.231687   0.180310 
Mo   2.867114   1.582977  16.761762   0.044067  -0.459346   0.231767 
S    1.904022   0.013008  18.399600   0.094763  -0.236315  -0.425577 
S    4.684016   1.539896  18.355353   0.430912   0.378579  -0.086879 
S    4.752923   1.540404  15.198556  -0.020948   0.248375  -0.042752 
S    2.011325  -0.101802  15.198853  -0.289768   0.189689  -0.106963 
Mo   5.662396  -0.081623  16.773226  -0.565366   0.173265   0.484048 
Mo   8.523423   1.496872  16.857157  -1.387256  -0.396514  -0.375107 
S    7.371818  -0.088487  18.464862   1.096213   0.112872  -0.467016 
S   10.292242   1.472881  18.492726   0.199783   0.298906  -0.473413 
S   10.358459   1.400480  15.169746  -0.480249   0.834828   0.603739 
S    7.570356  -0.088171  15.239538  -0.070254  -0.260150   0.282402 
Mo  11.201392  -0.093899  16.845169   0.835666   0.143324  -0.153215 
Mo  14.049136   1.497538  16.774218  -0.083071   0.119595   0.574889 
S   13.068431  -0.005133  18.439808   0.145374  -0.453075  -0.326403 
S   15.884357   1.509704  18.420610  -0.097529   0.066473  -0.276154 
S   15.937487   1.569640  15.158437  -0.492398  -1.072249   0.037815 
S   13.090388  -0.109071  15.235385  -0.199624  -0.260157   0.076387 
Mo  16.845990  -0.041220  16.827965  -0.316806  -0.200175  -0.431419 
Mo  19.627207   1.521800  16.737991  -0.073041   0.475277   0.905975 
S   18.750823  -0.018743  18.418415  -0.475054   0.123059  -0.440049 
S   21.518406   1.593773  18.368773  -0.718279   0.056797  -0.146464 
S   21.454193   1.625863  15.139564   0.028161  -0.116518  -0.057482 
S   18.633289  -0.062055  15.126801   0.133389   0.061779   0.594562 
Mo  22.379634   0.051953  16.748232   0.001746  -1.321894  -0.484376 
Mo  25.021800   1.636047  16.729033   1.654838  -1.009295   0.209833 
S   24.186899  -0.002139  18.325963   0.036171   0.046802   0.479428 
S   26.873784   1.603673  18.283296   0.626843   0.231879   0.015812 
S   26.906997   1.605525  15.145438   0.072740   0.265891   0.089599 
S   24.262142  -0.020111  15.164523  -0.473610  -0.259110  -0.140098 
Mo  27.864267  -0.013516  16.709894  -0.506281   0.544821   0.474912 
Mo  30.686873   1.574073  16.735778  -0.156219   0.740914  -0.149055 
S   29.699922   0.006242  18.276725   0.155794   0.053146   0.689719 
S   32.540275   1.604964  18.374315  -0.301862  -0.494662  -0.381513 
S   32.554872   1.541278  15.123478  -0.062456   0.279532   0.327989 
S   29.688783   0.056493  15.176125   0.407126  -0.760395  -0.874633 
Mo   0.136575   3.129648  16.732074  -0.393446   0.062241   0.475576 
Mo   2.885454   4.823558  16.744276  -0.585829  -0.651495  -0.330176 
S    1.933344   3.209221  18.363551   0.306556   0.054314  -0.329464 
S    4.668828   4.803976  18.338117   0.732130  -0.198800   0.366321 
S    4.701180   4.727086  15.118086   0.584594   0.520703   0.499030 
S    1.977243   3.185254  15.161839   0.099187   0.013342  -0.203457 
Mo   5.649510   3.205230  16.789917   0.269111  -1.396403   0.112142 
Mo   8.466170   4.727098  16.808760  -0.176345  -0.277181  -0.319486 
S    7.552222   3.090382  18.426798  -0.481617   0.484795  -0.452756 
S   10.255784   4.670314  18.404123   0.382442   0.110139   0.074629 
S   10.342347   4.719937  15.215705  -0.383685  -0.285976  -0.100891 
S    7.545204   3.060300  15.230036   0.101180   0.552823   0.279367 
Mo  11.200002   3.073299  16.818622   0.222105  -0.404568   0.062666 
Mo  14.017194   4.665769  16.902750  -0.780133   0.431660  -0.164355 
S   13.040120   2.997033  18.431647   0.278543   0.553854  -0.225481 
S   15.895040   4.600721  18.454140  -0.455907  -0.001923   0.147176 
S   15.831397   4.693518  15.268396  -0.127620  -0.025906  -0.205239 
S   13.067210   3.087163  15.244690   0.128999   0.467199   0.052764 
Mo  16.780935   3.059514  16.773396   1.170154   1.074622   0.744692 
Mo  19.559552   4.747116  16.874619  -0.455715  -0.502685  -0.782198 
S   18.634364   3.102885  18.401339   0.146539  -0.501818  -0.406810 
S   21.369083   4.687820  18.400482   0.163592   0.065043   1.042764 
S   21.373838   4.843122  15.178765  -0.278232  -0.283367   0.308249 
S   18.742097   3.130696  15.190576  -0.751633   0.296075   0.222064 
Mo  22.324580   3.243280  16.754712  -0.003658  -0.778413   0.400001 
Mo  25.102069   4.803857  16.831578  -0.459620  -0.123064   0.600615 
S   24.195948   3.148263  18.371560  -0.502870   0.517154   0.368322 
S   26.963861   4.786461  18.390240  -0.050684  -0.100107   0.230473 
S   26.867196   4.849284  15.153444   0.287454  -0.329544  -0.048726 
S   24.158168   3.258803  15.245022   0.049366   0.301535  -1.358453 
Mo  27.876101   3.274066  16.724245  -0.830135  -1.529806  -0.409442 
Mo  30.669510   4.759443  16.712349  -0.258478   0.150590  -0.036340 
S   29.689109   3.169914  18.278595   0.550817   0.031668   0.469557 
S   32.444664   4.762718  18.365885   0.438193  -0.256705   0.040626 
S   32.614989   4.781513  15.242107  -0.673990   0.140181  -1.056557 
S   29.716957   3.172665  15.096673   0.217712   0.090380   0.282674 
Mo   0.070375   6.350352  16.798748   0.406257   0.405091  -0.271972 
Mo   2.931000   7.982490  16.766125  -0.588810  -0.136174   0.869580 
S    1.915185   6.343834  18.363097   0.363322   0.490484  -0.022864 
S    4.738612   7.884664  18.373029   0.310055   0.064755   0.058011 
S    4.772663   7.926835  15.173004   0.272431   0.311482   0.253037 
S    1.925107   6.484147  15.175282   0.020676  -0.576088  -0.069616 
Mo   5.735701   6.325960  16.760108  -1.127197   0.239554  -0.517566 
Mo   8.506160   7.957726  16.863037  -0.744013  -0.612486  -0.445874 
S    7.520814   6.355754  18.385210   0.193844  -0.472774   0.263892 
S   10.318078   7.899167  18.463125  -0.113840  -0.202996  -0.015800 
S   10.290919   7.966485  15.213666   0.289963  -0.331303   0.311248 
S    7.621736   6.360578  15.193226  -0.115061  -0.113071   0.215659 
Mo  11.194805   6.298715  16.818084   0.537091   0.716218   0.544126 
Mo  14.050521   7.953960  16.957280  -1.055511  -0.980336  -0.123326 
S   13.012046   6.332687  18.493923   0.402290  -0.496024  -0.375824 
S   15.888677   7.848833  18.533801  -0.119681   0.365620  -0.078102 
S   15.837566   7.833484  15.332228   0.233386   0.790224   0.022078 
S   13.127421   6.390863  15.335419  -0.045044  -0.680707  -0.012008 
Mo  16.747846   6.234063  16.907388   0.675780   0.482404  -0.041986 
Mo  19.478338   7.914860  16.930652  -0.199723   0.234581  -0.218410 
S   18.578736   6.249865  18.547865   0.138478   0.200257  -0.563407 
S   21.274465   7.914592  18.542222   0.637070   0.014046  -0.422495 
S   21.335924   7.929481  15.305420  -0.293593   0.000005   0.035801 
S   18.616537   6.314676  15.314448  -0.470567   0.331992  -0.090731 
Mo  22.225726   6.332736  16.898602   0.342935   0.761671  -0.293841 
Mo  25.078946   7.925549  16.919623  -0.069123   0.546899  -0.035429 
S   24.039275   6.352958  18.468254   0.839378  -0.267448   0.277215 
S   26.965053   7.856533  18.418700   0.134560   0.783973   0.286881 
S   26.910374   7.927416  15.239396  -0.308743   0.400133  -0.105722 
S   24.107954   6.402689  15.348857  -0.108826  -0.069202  -0.790553 
Mo  27.843409   6.345681  16.777390   0.847726   0.088671   0.071646 
Mo  30.613903   8.019277  16.802467   0.048292  -1.019129   0.244698 
S   29.747144   6.299250  18.359934  -0.207090   0.467578  -0.297179 
S   32.482583   7.946156  18.429861  -0.141647   0.136852  -0.096154 
S   32.446637   8.004139  15.241823   0.704145   0.179690   0.088507 
S   29.697280   6.383864  15.148373   0.184061   0.153737   0.476091 
Mo   0.153739   9.529813  16.850636  -0.732368   0.348739   0.107708 
Mo   2.946414  11.161489  16.809523  -0.558141   0.593904   1.523947 
S    2.047753   9.597203  18.414736  -0.184795  -0.684972  -0.058361 
S    4.778711  11.115573  18.498747   0.098243   0.404156  -0.848749 
S    4.742585  11.201929  15.277396   0.816114  -0.212566  -0.430229 
S    1.984044   9.623554  15.277024  -0.028435  -0.416698  -0.974998 
Mo   5.689503   9.537435  16.846785  -0.438128  -0.039833   0.243791 
Mo   8.470503  11.132802  16.868892  -0.086868  -0.027150  -0.144792 
S    7.543611   9.492577  18.474349  -0.251375   0.417874  -0.171597 
S   10.275823  11.122999  18.474755   0.230399  -0.037446  -0.154586 
S   10.355458  11.109546  15.210042  -0.422906   0.135275   0.808350 
S    7.504931   9.524666  15.313063   0.477579   0.389659  -0.653799 
Mo  11.204090   9.501599  16.877073   0.568038   0.292107  -0.232537 
Mo  13.935377  11.137330  16.929393   0.596434  -0.560712   0.298858 
S   13.007641   9.477410  18.530962   0.226816   0.512656  -0.109934 
S   15.762652  11.085017  18.486950   0.454387   0.642919   0.176063 
S   15.801544  11.131424  15.275398  -0.019504  -0.071926   0.667908 
S   13.107337   9.505425  15.328247  -0.233344   0.110451   0.032866 
Mo  16.727952   9.526090  16.918320   0.350499  -0.525819  -0.408181 
Mo  19.529359  11.122778  16.948922   0.148161  -0.552183  -0.048081 
S   18.550673   9.489420  18.564890   0.129022   0.309607  -0.582397 
S   21.385804  11.043975  18.511545   0.254507   0.687379  -0.268696 
S   21.364145  11.105473  15.307103   0.086566   0.294290   0.176554 
S   18.589025   9.579662  15.301624  -0.103717  -0.313324   0.578724 
Mo  22.283787   9.494384  16.877368   0.197696  -0.084629   1.096390 
Mo  25.050860  11.138786  16.927644   0.404324   0.452661  -0.764554 
S   24.184175   9.574260  18.520207  -0.644665  -0.667135  -0.050191 
S   26.886497  11.119519  18.417259   0.780640  -0.046240   0.628594 
S   26.888553  11.170141  15.260046   0.086398  -0.107175   0.286490 
S   24.162265   9.520930  15.364587  -0.126350   0.086731  -0.694968 
Mo  27.849923   9.538339  16.817533  -0.120012   0.100889   0.493640 
Mo  30.697411  11.128367  16.894732  -0.568511   0.679017  -0.375531 
S   29.711300   9.562574  18.439935  -0.259873  -0.220689   0.066545 
S   32.529709  11.127383  18.540005  -0.073674  -0.273717  -0.415209 
S   32.514613  11.140859  15.263755   0.220183   0.182532   0.575026 
S   29.676617   9.617496  15.226771   0.344890   0.073841   0.006734 
Mo   0.085380  12.699659  16.912464   0.350879  -0.231208   0.008994 
Mo   2.889645  14.351957  16.976202  -0.321947   0.239360  -0.981237 
S    1.947818  12.698610  18.467242   0.300946  -0.189469   0.351799 
S    4.735360  14.377874  18.507061   0.268666  -0.655091   0.338211 
S    4.700769  14.373366  15.300492   0.159181  -0.009969   0.420087 
S    1.898855  12.795373  15.328693   0.590832   0.093384  -0.276973 
Mo   5.723282  12.783823  16.860587  -0.730222  -0.348649   0.573698 
Mo   8.489325  14.326874  16.846231   0.051027   0.154740   0.572303 
S    7.540614  12.744093  18.479913   0.126243  -0.022936  -0.338599 
S   10.327541  14.331582  18.515020  -0.371236  -0.201077  -0.344222 
S   10.372439  14.326675  15.248362  -0.362047   0.317255   0.334509 
S    7.589372  12.741098  15.253039  -0.275279  -0.092588   0.153843 
Mo  11.219091  12.726148  16.863572  -0.073893  -0.030402   0.662956 
Mo  14.026470  14.346815  16.917081  -0.118802   0.112647   0.769481 
S   13.032034  12.789853  18.512930   0.114189  -0.303541  -0.038274 
S   15.900105  14.346163  18.535782  -0.401742  -0.093980  -0.145535 
S   15.808696  14.307970  15.327384   0.518508   0.613767  -0.431176 
S   13.103692  12.721949  15.382497  -0.233909   0.292795  -1.115056 
Mo  16.727294  12.745784  16.886013   0.384847  -0.729829   1.018734 
Mo  19.594816  14.405049  16.982775   0.637065  -0.933664  -0.202016 
S   18.601467  12.686695  18.496879  -0.101951   0.784821   0.479511 
S   21.526360  14.290463  18.498598  -0.585731   0.523145   0.023438 
S   21.414396  14.359178  15.238440  -0.134037  -0.227287   0.967586 
S   18.676951  12.802851  15.455181  -0.404158  -0.107969  -1.148567 
Mo  22.372692  12.721159  16.880751  -1.310579  -0.241192  -0.188039 
Mo  25.137380  14.334297  16.931007   0.169177   0.336559   0.044764 
S   24.116618  12.737471  18.527122   0.745981   0.016605   0.021793 
S   26.996581  14.327345  18.484513  -0.270713  -0.314725   0.600045 
S   27.033300  14.341753  15.309516  -0.440221   0.489265   0.358095 
S   24.237387  12.789422  15.343192  -0.383747  -0.350821  -0.583350 
Mo  27.888674  12.725150  16.881042   0.365007   0.023448   0.417102 
Mo  30.700076  14.362642  17.044537  -0.266769  -0.132863  -0.714152 
S   29.771963  12.672789  18.553085  -0.372212   0.216694  -0.355668 
S   32.653510  14.385708  18.555856  -0.799781  -0.056780   0.259989 
S   32.512278  14.307562  15.400750  -0.160153   0.863093  -0.169587 
S   29.763251  12.839276  15.332189   0.281880  -0.393386   0.483403 
Mo   0.120860  15.973974  16.921158  -0.143419  -0.283275   0.146051 
Mo   2.868647  17.568537  16.889771   0.535276   0.202544   0.359266 
S    1.974558  16.026470  18.510983  -0.134990  -0.356390   0.331184 
S    4.744949  17.562179  18.514960  -0.123086   0.320240  -0.294394 
S    4.697938  17.567598  15.316470   0.536897  -0.142599   0.116457 
S    1.978707  15.949870  15.370010  -0.258228  -0.269274  -0.592617 
Mo   5.651357  15.935360  16.937938   0.128180   0.452205  -1.016047 
Mo   8.414913  17.549462  16.898610   0.751673  -0.266338  -0.637018 
S    7.526856  15.881510  18.491880   0.138543   0.439161  -0.121199 
S   10.356858  17.614409  18.456221  -0.830373  -0.572311   0.426930 
S   10.331396  17.661986  15.333154  -0.378594  -1.194687   0.007759 
S    7.495276  15.907463  15.283214   0.041097   0.392615   0.439569 
Mo  11.228253  15.901042  16.929180   0.002353   1.397691  -0.636220 
Mo  14.028908  17.600399  16.975449   0.082605  -0.326983  -1.217284 
S   13.112928  15.976575  18.473672  -0.339524  -0.374084   0.774762 
S   15.854047  17.613201  18.583400   0.594192  -0.325961  -0.626964 
S   15.919204  17.555013  15.375318  -0.476255   0.043695  -0.308297 
S   13.055422  15.937491  15.369516   0.502459   0.465255  -0.377298 
Mo  16.787873  15.938765  16.931924  -0.178320   0.303577   0.428977 
Mo  19.620158  17.631630  16.881298   0.320413  -0.554607  -0.789187 
S   18.666496  16.046285  18.471265  -0.035238   0.015021   0.749509 
S   21.479263  17.629476  18.437493   0.023665  -0.571364   0.186947 
S   21.500223  17.596036  15.264933  -0.256176  -0.125822   0.331868 
S   18.647447  15.949644  15.385133   0.051372   0.215724  -0.627476 
Mo  22.366747  15.922973  16.861716   0.591183   0.787262   0.680027 
Mo  25.192934  17.528991  16.992661  -0.909799   0.601800  -0.765609 
S   24.245068  15.939910  18.559953  -0.524923  -0.188519  -0.463220 
S   27.025316  17.616290  18.579396  -0.153703  -0.262485   0.215751 
S   26.982929  17.606849  15.397984   0.189150  -0.561246  -0.436557 
S   24.238293  15.956509  15.319836   0.237861  -0.062179   0.324637 
Mo  27.893949  15.965711  16.984317   0.433768  -0.008384  -0.707143 
Mo  30.666589  17.547985  16.982683  -0.135211   0.300867   0.045368 
S   29.711245  15.933432  18.610260   0.387237   0.356544  -0.133423 
S   32.541499  17.655358  18.595092  -0.143159  -0.262622  -1.062468 
S   32.434164  17.505745  15.318567   0.466957   0.268180   0.159139 
S   29.751572  15.939486  15.387091  -0.031910  -0.076964   0.406830 
Mo   0.067624  19.163507  16.797605   0.081233  -0.418871   0.840589 
Mo   2.902786  20.743526  16.857340  -0.468602   0.297144  -0.055596 
S    1.929917  19.161513  18.440898  -0.139331   0.275426  -0.019416 
S    4.717858  20.774512  18.479363   0.060890  -0.005848  -0.079788 
S    4.749934  20.755074  15.230017  -0.217759  -0.114618   0.407127 
S    1.961451  19.139155  15.275438  -0.103143   0.190744  -0.317576 
Mo   5.669087  19.180066  16.890781  -0.136974  -0.109159  -0.596252 
Mo   8.472452  20.771473  16.876894  -0.501516  -0.317064  -0.544299 
S    7.546500  19.182201  18.414927  -0.296713  -0.143760   0.825844 
S   10.285631  20.885310  18.504872  -0.000132  -0.795495   0.109584 
S   10.341907  20.824818  15.288047  -0.259326  -0.202449   0.008657 
S    7.502144  19.101584  15.214500   0.197721   0.459472   0.965487 
Mo  11.212397  19.217780  16.905921   1.119317   0.625797  -0.009711 
Mo  14.091438  20.804467  16.954753  -0.267553  -0.547544  -0.245905 
S   13.050634  19.154414  18.535367   0.227285   0.747449  -0.092273 
S   15.986046  20.752497  18.530692  -0.041316   0.147610  -0.179371 
S   15.958989  20.833794  15.334331  -0.275145  -0.654969   0.208017 
S   13.155171  19.215093  15.343245  -0.224457  -0.189196   0.297217 
Mo  16.890068  19.144964  16.914442  -0.600130   0.989312   0.317888 
Mo  19.633278  20.835545  16.839906   0.217314   0.254386   0.016847 
S   18.808571  19.222806  18.437211  -0.724499   0.124939   0.675388 
S   21.486177  20.869828  18.445044   0.042266  -0.041464  -0.148959 
S   21.473694  20.758484  15.254875   0.215631   0.524158   0.007837 
S   18.683007  19.246963  15.281348   0.079010  -0.604952  -0.151054 
Mo  22.396489  19.219273  16.873938   0.135748  -0.467459  -0.197841 
Mo  25.168783  20.845320  16.903915  -0.926654  -0.404778   0.238678 
S   24.209014  19.194565  18.474136   0.224952   0.222236   0.317179 
S   26.959621  20.855558  18.523843   0.327605   0.002412   0.002287 
S   26.974655  20.748746  15.358848   0.366151   0.228442  -0.528455 
S   24.281459  19.159559  15.333539   0.168955   0.012337   0.212814 
Mo  27.904539  19.182662  16.954038   0.023300   0.485904  -0.243193 
Mo  30.637229  20.803907  16.862861   0.804543  -0.197725   0.071104 
S   29.734339  19.245242  18.488962   0.328855  -0.336141   0.527903 
S   32.515043  20.776055  18.462079  -0.305735   0.074077  -0.044278 
S   32.449997  20.830767  15.253729   0.450005  -0.445801  -0.076769 
S   29.776439  19.158594  15.310666  -0.515848  -0.359612   0.368528 
Mo   0.073745  22.333813  16.839353   0.151281   0.776461  -0.543283 
Mo   2.878111  23.996643  16.868067   0.306669   0.039233  -0.202441 
S    1.924644  22.359069  18.438412   0.196502   0.123043   0.003203 
S    4.732148  23.994155  18.446687  -0.100923   0.283610  -0.184934 
S    4.739188  23.976515  15.205818  -0.330308  -0.178604   0.285250 
S    1.959686  22.391334  15.304210  -0.004471  -0.354584  -0.340457 
Mo   5.583936  22.381725  16.854325   1.422526  -0.364291  -0.002276 
Mo   8.437127  23.941079  16.890186   0.216790   0.664002  -0.418824 
S    7.502988  22.377207  18.471759  -0.387881  -0.173539  -0.152174 
S   10.330948  24.055189  18.470443  -0.490781  -0.699856   0.100213 
S   10.314945  23.936078  15.251652  -0.286260   0.039493   0.479662 
S    7.508494  22.315573  15.299423  -0.226779   0.380097   0.012486 
Mo  11.241374  22.385809  16.901712   0.439102   0.600127   0.131053 
Mo  14.019673  23.964941  16.877136   0.195733   0.902962   0.717094 
S   13.145636  22.396950  18.495192  -0.359938   0.104521   0.362371 
S   15.923595  24.030486  18.446450  -0.040990  -0.029095   0.133073 
S   15.832471  23.938960  15.311601   0.756812   0.296281  -0.102107 
S   13.107049  22.392734  15.350222   0.052287  -0.595336  -0.496726 
Mo  16.866544  22.396845  16.922727   0.155893   0.038466  -0.069491 
Mo  19.602970  24.056752  16.781232   0.562885  -0.694758  -0.681510 
S   18.806541  22.457181  18.450069  -0.640587   0.003312  -0.117718 
S   21.461660  24.074131  18.332059   0.143138   0.433120   0.323715 
S   21.548816  24.008655  15.175503  -0.672882   0.244941   0.245440 
S   18.648133  22.388806  15.225953   0.074438   0.300584   0.349611 
Mo  22.430747  22.456092  16.825528  -0.671552  -0.832927  -0.358680 
Mo  25.151349  23.988232  16.808534   0.670751   1.166236  -0.286053 
S   24.188621  22.472649  18.480777   0.406250  -0.081466  -0.175614 
S   27.004164  24.119576  18.392930   0.015438  -0.430773  -0.057628 
S   27.038429  23.992217  15.139429  -0.334652  -0.514124   0.852399 
S   24.260359  22.421201  15.251676   0.014535  -0.526279  -0.343379 
Mo  27.935611  22.401866  16.885604  -0.691018   0.502692  -0.680293 
Mo  30.639839  24.046628  16.722787   0.154210  -0.707739   0.922801 
S   29.778683  22.406966  18.421135   0.019445   0.863308   0.183752 
S   32.520162  24.058947  18.337443  -0.542702  -0.045613   0.330004 
S   32.477787  23.962336  15.182119   0.712677   0.138179   0.073213 
S   29.732266  22.359812  15.226559  -0.223707   0.135693  -0.109184 
