288
Lattice="33.331235 0.034851 0.030858 0.026817 25.651728 -0.000664 0.027083 9e-05 30.621059 " PBC="1 1 1" Properties="species:S:1:pos:R:3:force:R:3" Energy=" -5.285992"
Mo   0.094063  -0.059349  16.684597   0.044775   0.109852   0.480263 
Mo   2.900484   1.549114  16.796208   0.481340  -0.290408  -0.633296 
S    1.950007  -0.062181  18.354163  -0.548421   0.080614  -0.138286 
S    4.754026   1.518967  18.415651  -0.313168   0.439465  -0.133838 
S    4.744708   1.510448  15.164088  -0.026094  -0.068478   0.339670 
S    2.032172  -0.074019  15.188571  -0.323345   0.126265  -0.321716 
Mo   5.647970  -0.049748  16.838108   0.810331  -0.499448  -0.271001 
Mo   8.412518   1.566213  16.764691   0.433190  -0.855602   0.132313 
S    7.598671   0.046229  18.443078  -0.907544  -0.760050  -0.345208 
S   10.215955   1.521319  18.395329   0.492539   0.327512   0.109752 
S   10.285159   1.517276  15.255080   0.614325  -0.106334  -0.032946 
S    7.493394  -0.168264  15.217098   0.234807   0.650970   0.442594 
Mo  11.258996  -0.097471  16.903328  -0.754489  -0.115309   0.305425 
Mo  13.985697   1.504108  16.918419   0.287244   0.399896   0.507659 
S   13.069569  -0.063826  18.538279   0.264062  -0.382374  -0.325576 
S   15.923658   1.511966  18.422514  -0.231796  -0.236694   0.197763 
S   15.772124   1.521539  15.278006   0.451620   0.422816  -0.083679 
S   13.104855  -0.093106  15.349180  -0.111223  -0.165237  -0.521120 
Mo  16.840262  -0.065510  16.766713   0.258215   0.353825   0.194824 
Mo  19.557196   1.586753  16.735301   0.564766  -0.121532   0.324600 
S   18.730472  -0.027647  18.350338  -0.240401   0.173795  -0.046434 
S   21.404515   1.498023  18.341805  -0.047607   0.558692  -0.057407 
S   21.445456   1.510581  15.148901  -0.195478   0.630306   0.046781 
S   18.772307   0.004856  15.167955  -1.089493  -0.585187  -0.368164 
Mo  22.361376  -0.056207  16.749827   0.447197  -0.039926   0.291885 
Mo  25.115750   1.610583  16.820681   0.003594  -0.334846  -1.113794 
S   24.196901   0.053358  18.412789  -0.353897  -0.421850  -0.218375 
S   26.971899   1.595346  18.444942  -0.013321  -0.084367  -0.735078 
S   26.922039   1.581725  15.125635   0.125237  -0.028154   0.742786 
S   24.220686  -0.034767  15.155823  -0.108372   0.628611   0.236698 
Mo  27.897986   0.021339  16.767867  -0.064271   0.058203   0.012528 
Mo  30.636683   1.586901  16.674428   0.392818   0.260297   0.107148 
S   29.793778   0.000680  18.299673  -0.337559   0.208097   0.319803 
S   32.459212   1.584897  18.260634   0.398240   0.037898   0.084909 
S   32.499090   1.583279  15.069704   0.118780  -0.129895   0.198238 
S   29.744485  -0.065717  15.182862  -0.539856   0.462006  -1.151439 
Mo   0.096406   3.144726  16.650824   0.340413  -0.133232   0.741914 
Mo   2.955298   4.761543  16.801637  -0.188309  -0.531703  -0.440323 
S    1.985393   3.147883  18.320174  -0.745089   0.031449   0.244046 
S    4.822092   4.723961  18.338160  -0.373036  -0.501715   1.053014 
S    4.844644   4.801555  15.271066  -0.444652  -0.756747  -0.913934 
S    2.034531   3.180631  15.161027   0.008027  -0.136996   0.047731 
Mo   5.710079   3.079050  16.759838  -0.380339   0.713341   0.678480 
Mo   8.434946   4.735103  16.822571   0.114783  -0.637212  -0.815478 
S    7.542812   3.130491  18.406274  -0.374243  -0.125739  -0.131452 
S   10.287474   4.681009  18.446715  -0.318211   0.004956   0.306744 
S   10.281447   4.691133  15.266727   0.460683   0.338683  -0.269266 
S    7.516249   3.127319  15.172834   0.169869   0.207086  -0.206891 
Mo  11.236692   3.144457  16.851306  -0.530159  -1.176281   0.180973 
Mo  13.989828   4.736123  16.944985  -0.297391  -0.055468  -0.006363 
S   13.014176   3.113280  18.534381   0.349422  -0.123884  -0.404774 
S   15.817109   4.642905  18.536329   0.269440   0.570959   0.097719 
S   15.818054   4.774890  15.367412  -0.027759   0.099291  -0.345055 
S   13.127954   3.106257  15.330118  -0.205556   0.272086  -0.263720 
Mo  16.769749   3.146662  16.887033  -0.116414  -0.634862  -0.749658 
Mo  19.502772   4.699906  16.836807  -0.480210   0.604457  -0.545217 
S   18.641961   3.061780  18.440072   0.044229   0.516784  -0.239939 
S   21.384719   4.764633  18.403248   0.134259  -0.298517  -0.160673 
S   21.318204   4.827839  15.230341   0.477664  -0.335951   0.028051 
S   18.492326   3.135815  15.132064   0.614004   0.335330   0.936350 
Mo  22.320842   3.154688  16.765080  -0.964847   0.266279  -0.052520 
Mo  25.055596   4.779830  16.792715   0.756254   0.392478   0.417221 
S   24.100855   3.172590  18.336451   0.504684   0.104530   1.034395 
S   26.919510   4.761967  18.347859   0.367925   0.112318   0.275522 
S   26.886963   4.746008  15.217340   0.523561   0.545189  -0.270044 
S   24.163057   3.260154  15.238907  -0.144144  -0.983277  -1.020511 
Mo  27.858352   3.154904  16.772637  -0.261936   0.101494  -0.218076 
Mo  30.684448   4.819717  16.764985  -0.980930  -0.737869  -0.402381 
S   29.729571   3.158992  18.299887   0.168139   0.103248   0.243146 
S   32.540782   4.716895  18.370162  -0.118878   0.026018  -0.271717 
S   32.458668   4.806014  15.163542   0.699722   0.158680  -0.284475 
S   29.647500   3.211665  15.124030   0.559669   0.238812   0.355960 
Mo   0.145224   6.291666  16.764380   0.165223   0.434673   0.143225 
Mo   2.895856   7.939513  16.802174  -0.159538  -0.381682   0.151110 
S    2.006243   6.291761  18.408382  -0.267820   0.374608  -0.310480 
S    4.738829   7.979528  18.443039   0.011095  -0.069572  -0.599176 
S    4.731178   7.986200  15.215540   0.235015  -0.360766  -0.029102 
S    2.076884   6.287212  15.159835  -0.628756   0.679792   0.344355 
Mo   5.669437   6.343752  16.852056   0.584094   1.105894  -1.092884 
Mo   8.455654   7.869216  16.787676   0.501424   0.147709   0.686993 
S    7.494427   6.248050  18.371400   0.280063   0.861561   0.864705 
S   10.279204   7.883834  18.480893  -0.052439  -0.174947  -0.474333 
S   10.389047   7.906150  15.294931  -0.077281  -0.332019   0.133624 
S    7.513612   6.344819  15.162529  -0.182817  -0.305487   0.522040 
Mo  11.277845   6.236190  16.903763  -0.836517   1.263025   0.046631 
Mo  13.900308   7.890563  16.925902   0.656403   0.477467   0.254013 
S   13.081828   6.320926  18.615525  -0.416432  -0.214533  -0.909341 
S   15.742583   7.907060  18.554132   0.156396   0.105619  -0.032835 
S   15.739310   7.921940  15.354499   0.518823   0.030293   0.212813 
S   13.052623   6.328727  15.262935   0.339002  -0.467507   0.560351 
Mo  16.733355   6.347425  16.978539  -0.635193  -0.454640  -0.296116 
Mo  19.487655   7.904539  16.946763   0.525719   0.399770  -0.443374 
S   18.619671   6.271606  18.485589  -0.088210  -0.133383   0.463794 
S   21.413609   7.935141  18.498931  -0.295652  -0.378289   0.110572 
S   21.347181   7.987002  15.337725  -0.241873  -0.169588  -0.226156 
S   18.458086   6.381339  15.284114   0.874529  -0.311685   0.545113 
Mo  22.351091   6.376546  16.848633  -0.427264  -0.093384   0.318165 
Mo  25.119839   7.982222  16.795756   0.227869  -0.142791   0.769871 
S   24.285193   6.352386  18.421561  -0.763012   0.381710  -0.019527 
S   27.007937   7.950130  18.446790  -0.507309  -0.204091  -0.355170 
S   27.001989   8.020527  15.239040  -0.490793  -0.053738  -0.445833 
S   24.179392   6.408088  15.237722  -0.290238  -0.049784  -0.532375 
Mo  27.894578   6.397246  16.789798   0.202022  -0.801339   0.122684 
Mo  30.669521   7.946468  16.837587  -0.180548  -0.125161  -0.457525 
S   29.771711   6.323566  18.421746  -0.431133   0.264079  -0.319369 
S   32.492317   7.915423  18.442562   0.344649  -0.469439  -0.084895 
S   32.557479   7.997492  15.264912  -0.353583  -0.480174  -0.385127 
S   29.704004   6.436355  15.118388   0.334663  -0.261742   0.932611 
Mo   0.110961   9.469571  16.848898  -0.277915   0.803934   0.192278 
Mo   2.887665  11.101333  16.871279   1.092558  -0.729938   0.141979 
S    1.922353   9.441959  18.447598   0.396427   0.336966  -0.059332 
S    4.761498  11.096828  18.495053   0.087507   0.012103  -0.896122 
S    4.839484  11.165947  15.259221  -0.855244   0.186764   0.000496 
S    1.917308   9.549404  15.221578   0.434426  -0.032798   0.172017 
Mo   5.730067   9.540289  16.767019  -1.134145  -0.115386   1.030947 
Mo   8.423327  11.111641  16.929106   0.636435   0.489259  -0.783596 
S    7.470300   9.431419  18.360780   0.653989   0.057969   0.990900 
S   10.293362  11.106603  18.510275  -0.117877   0.511609  -0.085207 
S   10.308360  11.167241  15.332419  -0.052094   0.042862   0.218664 
S    7.621231   9.514308  15.237680  -0.153783   0.364509  -0.282714 
Mo  11.222442   9.532281  16.912668  -0.080610  -0.016038  -0.302958 
Mo  13.980777  11.129726  16.925123   0.487559   0.508730   0.215010 
S   13.041269   9.557351  18.494008  -0.150502  -0.248513   0.440323 
S   15.816915  11.086654  18.560637  -0.263317   0.607733   0.190615 
S   15.890134  11.102563  15.385314  -0.555689   0.625070  -0.283537 
S   13.078614   9.546968  15.308957  -0.295911   0.030631   0.108711 
Mo  16.701299   9.532663  16.971980   0.671955  -0.850021   0.044627 
Mo  19.495513  11.136205  16.979959   0.503862   0.130334   0.563533 
S   18.583276   9.506691  18.562157  -0.113897  -0.065274  -0.060594 
S   21.412723  11.182690  18.581921  -0.301485  -0.458841  -0.494127 
S   21.312441  11.130027  15.375249   0.202955   0.458158  -0.131382 
S   18.590070   9.562740  15.388351  -0.332886  -0.324271  -0.112122 
Mo  22.281181   9.545896  16.931284   0.105133   0.502893   0.558438 
Mo  25.084067  11.133611  16.855401  -0.083793   0.037627   0.369178 
S   24.214846   9.500646  18.466769  -0.308033   0.241906  -0.169516 
S   26.937912  11.122955  18.504039  -0.254104   0.070651  -0.347850 
S   26.947050  11.192789  15.287295  -0.239083  -0.564756  -0.432345 
S   24.032062   9.577372  15.280265   0.729300   0.013293  -0.182241 
Mo  27.877392   9.564045  16.864904  -0.348091   0.282450  -0.034250 
Mo  30.616452  11.160928  16.909880   0.109415  -0.055387  -0.462780 
S   29.689686   9.503916  18.428893   0.454137   0.109213   0.546644 
S   32.462290  11.092353  18.469494   0.545341   0.154833   0.334342 
S   32.523693  11.181397  15.362629  -0.079530   0.003435  -0.163017 
S   29.711240   9.556803  15.287773   0.362474   0.429166  -0.285240 
Mo   0.200699  12.699359  16.939037  -1.142119  -0.102409  -0.120249 
Mo   2.925376  14.307215  16.931668   0.114858   0.707194  -0.572238 
S    2.067256  12.655115  18.509526  -0.325707   0.254307   0.286332 
S    4.790181  14.370527  18.518242  -0.119685  -0.245730  -0.053293 
S    4.757239  14.438258  15.307899  -0.077835  -0.841622   0.166567 
S    2.034346  12.690243  15.334596  -0.286455   0.419894  -0.498320 
Mo   5.680091  12.760141  16.894432  -0.283802   0.188579   0.352017 
Mo   8.438954  14.360810  16.904623  -0.161845  -0.114501   0.725851 
S    7.505016  12.733559  18.515307   0.102504  -0.012945  -0.143504 
S   10.345902  14.434362  18.449786  -0.497081  -0.444983   0.601660 
S   10.256745  14.436736  15.359586   0.665021  -0.595053  -0.580608 
S    7.499726  12.749290  15.318176   0.407015  -0.089976   0.058094 
Mo  11.266631  12.793230  16.920400  -1.162134  -0.317340  -0.213494 
Mo  13.998434  14.418699  16.959741   0.705847  -0.694250   0.002350 
S   13.042654  12.765350  18.525268   0.479800   0.078103   0.080891 
S   15.831576  14.411117  18.587457   0.372793  -0.071554  -0.475411 
S   15.954754  14.376536  15.411878  -0.640014  -0.113267  -0.191831 
S   13.131846  12.797742  15.374000  -0.171114   0.016201  -0.516416 
Mo  16.772267  12.734190  17.010641  -0.570045   0.118815  -0.016186 
Mo  19.552779  14.318743  16.996227   0.709394   0.467664  -0.664579 
S   18.623214  12.787851  18.561860  -0.200012  -0.532686   0.584041 
S   21.435402  14.362007  18.569139   0.072364   0.319189  -0.295550 
S   21.406812  14.386877  15.395130  -0.231248  -0.193238  -0.335271 
S   18.546431  12.674862  15.365961   0.570037   0.628940   0.208514 
Mo  22.307521  12.765272  16.941211  -0.025134  -0.433761  -0.536250 
Mo  25.066266  14.355685  16.849860   0.333312  -0.044516   0.413374 
S   24.152224  12.733470  18.437154   0.519512  -0.007546   0.444844 
S   26.908925  14.342006  18.516473  -0.169312  -0.552462  -0.153528 
S   26.924219  14.402452  15.333312   0.162833  -0.736420  -0.575196 
S   24.134018  12.712961  15.254993  -0.140235   0.310162   0.284058 
Mo  27.828895  12.721159  16.878675   0.463553   0.847245   0.835723 
Mo  30.650762  14.324216  16.962715   0.646029  -0.183835   0.102056 
S   29.658107  12.723848  18.545839   0.151606  -0.101491  -0.455070 
S   32.507122  14.261880  18.601045   0.349393   0.364141  -0.639771 
S   32.567109  14.370223  15.382097  -0.272604  -0.531622   0.106121 
S   29.709645  12.782335  15.292806   0.096150  -0.109920   0.410100 
Mo   0.165210  15.878358  16.936146  -0.705259   0.704308   0.238731 
Mo   2.897204  17.538179  16.898928   0.155008   0.445263  -0.140297 
S    2.019901  15.919029  18.507980  -0.054216   0.016066   0.186651 
S    4.761396  17.585195  18.496675  -0.262109   0.011077  -0.035067 
S    4.774719  17.555207  15.269559  -0.149917   0.188778   0.630712 
S    1.932815  15.948717  15.289844   0.604742  -0.551345   0.535957 
Mo   5.690712  15.970269  16.915401  -0.288804   0.280913  -0.273183 
Mo   8.463851  17.561237  16.911383   0.299194  -0.026962  -0.162536 
S    7.497114  15.991061  18.500472   0.436511  -0.419187   0.208457 
S   10.292564  17.571777  18.501879   0.033245   0.204240   0.496217 
S   10.362029  17.573001  15.304223  -0.376409   0.826820   0.102902 
S    7.539307  15.941386  15.318232  -0.113780   0.177481  -0.127570 
Mo  11.221252  16.046822  16.898868   1.031223  -0.895965  -0.080864 
Mo  14.031682  17.593155  16.911743   0.396825  -0.057903   0.286729 
S   13.058796  15.999752  18.530016   0.039825   0.310132  -0.183266 
S   15.923510  17.609894  18.477803  -0.069199   0.194454   0.244524 
S   15.912803  17.604430  15.341454   0.152932  -0.209538  -0.035884 
S   13.140852  15.975952  15.304260  -0.397452   0.160644   0.260045 
Mo  16.859057  15.993332  16.943207   0.428608  -0.153510   0.523648 
Mo  19.656434  17.566155  16.943343  -0.212375   0.972813  -0.307206 
S   18.791814  16.023310  18.551294  -1.079967  -0.378448   0.161180 
S   21.458629  17.626243  18.523282   0.395111  -0.306770   0.433951 
S   21.446475  17.564452  15.304086   0.255291   0.302136   0.213669 
S   18.778668  15.933845  15.386902  -0.892483   0.054744  -0.387553 
Mo  22.363476  16.011967  16.927440   0.006075  -0.672671   0.290010 
Mo  25.145436  17.592262  16.904229  -0.388764  -0.703138   0.172835 
S   24.245713  15.934034  18.488565  -0.345047   0.408257  -0.023941 
S   26.957218  17.500323  18.487990   0.292119   0.280591   0.551552 
S   27.003559  17.505695  15.344668   0.251820   0.217403   0.158044 
S   24.185904  16.008431  15.267334  -0.077553  -0.036872   0.381112 
Mo  27.887189  15.867037  16.951588   0.508755   1.386270  -0.051979 
Mo  30.689010  17.538015  16.970275   0.555890  -0.688714  -0.440117 
S   29.767946  15.938020  18.571504  -0.296930  -0.184425  -0.154853 
S   32.603997  17.577793  18.516287  -0.423986  -0.344787   0.451203 
S   32.548144  17.543202  15.337505  -0.096904  -0.306839   0.548397 
S   29.755131  15.900997  15.365390  -0.026965   0.344216   0.101609 
Mo   0.114650  19.134154  16.912206   0.092847   0.824735  -0.816623 
Mo   2.884598  20.772781  16.800170   0.267668  -0.070083   0.726081 
S    1.932178  19.226951  18.468562   0.685274  -0.376890  -0.079190 
S    4.756880  20.774568  18.465248  -0.224424   0.227627  -0.302989 
S    4.817309  20.739727  15.327873   0.065459   0.315684  -0.478063 
S    1.973029  19.133775  15.275051  -0.235452  -0.135244   0.135788 
Mo   5.717486  19.163853  16.901260   0.032279  -0.543796  -0.132674 
Mo   8.452666  20.745115  16.967580   0.588639   0.217214  -0.898540 
S    7.514823  19.099954  18.561293   0.122119   0.483084  -0.400719 
S   10.300708  20.733200  18.566733   0.120034   0.102249   0.023017 
S   10.344455  20.811070  15.381452  -0.197697  -0.511989   0.139859 
S    7.635258  19.146533  15.310273  -0.663601   0.298550   0.185811 
Mo  11.275186  19.175836  16.976853   0.348958   0.077346  -0.791845 
Mo  14.079881  20.791309  16.977068   0.217479  -0.644248  -0.663093 
S   13.197722  19.164120  18.587476  -0.480713   0.145694  -0.607029 
S   15.972367  20.888856  18.514977   0.166081  -0.408910  -0.284169 
S   15.906872  20.744656  15.249135  -0.004901   0.434040   1.021059 
S   13.140121  19.194103  15.308571  -0.204314   0.114995   0.777994 
Mo  16.878864  19.217602  16.898872  -0.719774   0.062513   0.201592 
Mo  19.617919  20.865971  16.897421   0.138830  -0.179238  -0.548465 
S   18.706931  19.256327  18.479753   0.127644  -0.117556   0.354589 
S   21.463878  20.757390  18.484606  -0.005009   0.688031   0.024009 
S   21.444643  20.782224  15.231232   0.155620  -0.162215   1.000182 
S   18.741321  19.176103  15.354806  -0.056158   0.168245  -0.323942 
Mo  22.410561  19.170669  16.929347  -0.719204   0.531711  -1.240338 
Mo  25.223016  20.742324  16.881071   0.074366   0.394403   0.602169 
S   24.223274  19.213863  18.516546   0.415649  -0.199941   0.089780 
S   27.087803  20.788854  18.474398  -0.242741   0.409587   0.166344 
S   27.090306  20.735437  15.293971  -0.226550  -0.317671   0.180158 
S   24.251847  19.170556  15.324759  -0.105400   0.083574  -0.379954 
Mo  27.970670  19.135686  16.968782  -0.367682  -0.215376  -0.653473 
Mo  30.688369  20.764906  16.870802  -0.792320   0.206950  -0.085538 
S   29.836437  19.124729  18.552081  -0.226187   0.737499  -0.007411 
S   32.494849  20.913374  18.466275   0.268199  -0.685849   0.029333 
S   32.509111  20.723960  15.298804   0.137196   0.059905  -0.227176 
S   29.751693  19.065877  15.360485   0.239385   0.360775  -0.342361 
Mo   0.081244  22.386269  16.771583  -0.051270   0.228309   0.191556 
Mo   2.871393  23.965391  16.785593   1.059279  -0.438738   0.109218 
S    1.917293  22.360084  18.369748   0.152442   0.448723   0.035188 
S    4.766346  24.003232  18.425306  -0.361158  -0.220003  -0.150671 
S    4.847941  23.920406  15.256147  -0.590119   0.285785   0.126275 
S    1.925644  22.349391  15.166735   0.374256   0.097939   0.277253 
Mo   5.772768  22.387059  16.886614  -0.728264  -0.306757  -0.244401 
Mo   8.512825  23.995937  16.897178  -0.089473  -0.766740  -0.154495 
S    7.570646  22.363062  18.515854  -0.069296   0.618924  -0.038168 
S   10.329466  23.927929  18.559496  -0.032068   0.852730  -0.289124 
S   10.415811  23.927933  15.332826  -0.371600   0.248901  -0.000613 
S    7.619745  22.384144  15.203236   0.051627  -0.205967   1.475413 
Mo  11.256592  22.365864  16.983031   0.387459  -0.164458   0.044775 
Mo  14.092021  23.962562  16.901126  -0.225762   0.739304   0.970126 
S   13.145564  22.382155  18.547797   0.110432   0.264832   0.045144 
S   16.007211  24.121183  18.470744  -0.422524  -0.742105  -0.313616 
S   15.888607  23.957604  15.226385  -0.073837   0.224363   0.036318 
S   13.122966  22.345578  15.404316  -0.164824   0.003083  -0.504357 
Mo  16.846600  22.460482  16.857761   0.379232  -0.548805  -0.417533 
Mo  19.682955  24.040281  16.761933   0.115246   0.177275   0.061402 
S   18.701800  22.587578  18.435119   0.157484  -0.805322  -0.200809 
S   21.495159  24.038946  18.408990  -0.005831  -0.095693  -0.112591 
S   21.565783  23.934893  15.155123  -0.379760   0.181480   0.410698 
S   18.732282  22.467890  15.208737  -0.391965  -0.697808   0.410138 
Mo  22.383139  22.392569  16.867139   0.641343  -0.457330  -0.223457 
Mo  25.129157  24.111572  16.795975   1.137296  -0.989931   0.676072 
S   24.323930  22.456875  18.390952  -0.438207  -0.221972   0.372744 
S   27.018078  24.162576  18.397279  -0.293703  -0.826836  -0.136586 
S   26.999700  24.009494  15.241734  -0.267661   0.262250  -0.517033 
S   24.306632  22.327382  15.347201  -0.474116   0.407509  -0.841842 
Mo  27.916079  22.438122  16.816379  -0.175703  -0.209146   0.487573 
Mo  30.692115  24.042317  16.711264  -0.363839  -0.722094   0.799537 
S   29.744368  22.482992  18.349149   0.306652  -0.185409   0.405790 
S   32.423600  24.088931  18.382598   1.022949  -0.083720  -0.456026 
S   32.523530  23.999938  15.149682   0.295694  -0.121298  -0.173096 
S   29.731638  22.397585  15.192373   0.219879  -0.494797   0.187071 
