288
Lattice="33.334584 0.035079 0.030862 0.026993 25.649185 -0.000664 0.027086 9e-05 30.424862 " PBC="1 1 1" Properties="species:S:1:pos:R:3:force:R:3" Energy=" -5.284689"
Mo   0.032945  -0.058965  16.723499  -0.488123   0.421187   0.722231 
Mo   2.827289   1.547745  16.858757   0.338034   0.591126  -0.201391 
S    1.839352  -0.070106  18.393240  -0.039509   0.049782   0.033907 
S    4.696180   1.509724  18.488915   0.029076   0.413861  -0.478026 
S    4.732817   1.569661  15.257235  -0.472585  -0.214558   0.125951 
S    1.899574  -0.042081  15.261186   0.301922   0.425152  -1.058866 
Mo   5.605383  -0.055315  16.859307  -0.299689  -0.123795  -0.428341 
Mo   8.450603   1.486802  16.817523   0.387753   0.908635  -0.677691 
S    7.490124  -0.087581  18.329269   0.113969  -0.331495   1.204442 
S   10.410690   1.476449  18.369742  -0.893278  -0.135742   0.296419 
S   10.287664   1.500449  15.194239  -0.183552   0.223081   0.112756 
S    7.422912  -0.046922  15.243965   0.176209  -0.120534  -0.430482 
Mo  11.235607  -0.128569  16.742431  -0.293150   0.349893   0.079440 
Mo  13.985077   1.469682  16.719780  -0.047534   0.476585   0.353645 
S   13.055871  -0.139786  18.359823   0.333835  -0.113584  -0.444368 
S   15.811449   1.484954  18.305066   0.257607  -0.109380   0.088461 
S   15.789516   1.517946  15.055503   0.379844   0.505561   0.552694 
S   13.082151  -0.084940  15.124356  -0.534749  -0.085924  -0.351687 
Mo  16.767189  -0.041212  16.663135  -0.106374  -0.505347   0.249185 
Mo  19.551230   1.568244  16.735850   0.305306  -0.469069   0.644596 
S   18.532899  -0.084891  18.291117   0.576107   0.278065  -0.028410 
S   21.377237   1.537184  18.434449  -0.388710   0.120416  -0.595056 
S   21.472797   1.592763  15.183872  -0.564889  -0.587290  -0.142049 
S   18.688704   0.000773  15.094329  -0.390706  -0.118529   0.061840 
Mo  22.276153  -0.049753  16.803736   0.301992   0.459797  -0.243481 
Mo  25.115716   1.548409  16.898754  -1.124528   0.517043  -0.025129 
S   24.064366  -0.063091  18.445008   0.823571  -0.163775  -0.222002 
S   26.949234   1.517717  18.425063  -0.366930   0.633088   1.128645 
S   26.894247   1.585399  15.281576   0.368186  -0.264205  -0.460904 
S   24.222841   0.013608  15.279762  -0.318745  -0.617679  -0.190349 
Mo  27.790337  -0.038886  16.865075   0.588197  -0.639292  -0.498842 
Mo  30.590467   1.591830  16.849638  -0.353146  -0.702804  -0.583097 
S   29.568438   0.004934  18.486195   1.056314  -0.286103  -0.535799 
S   32.428704   1.553668  18.364001   0.653447   0.301013   0.139010 
S   32.401505   1.717764  15.199730   0.285247  -0.949156   0.077237 
S   29.591550  -0.060637  15.260133   0.539749   0.694496  -0.164560 
Mo   0.094132   3.192086  16.755696  -0.766697  -0.247982   1.045192 
Mo   2.806198   4.786918  16.873190   0.711900   0.001213   0.339339 
S    1.873431   3.160627  18.456334   0.136011  -0.049452  -0.432453 
S    4.736361   4.742139  18.443551   0.088258   0.381079  -0.421263 
S    4.695737   4.741268  15.350113   0.189405   0.076091  -0.605896 
S    1.927825   3.209425  15.222800   0.471406  -0.265951   0.104844 
Mo   5.702196   3.111159  16.859201  -1.052348   0.320666   0.190748 
Mo   8.508279   4.793979  16.753134  -1.664741  -0.462662  -0.177591 
S    7.562966   3.135185  18.368930   0.394083   0.212533   0.319496 
S   10.275816   4.772768  18.318701   0.535393   0.131545   0.636412 
S   10.294765   4.770011  15.111451   0.209420  -0.301227   0.637796 
S    7.483564   3.147975  15.196137   0.482120  -0.258259   0.513342 
Mo  11.193164   3.110402  16.807961   0.679943   0.442897  -0.976544 
Mo  13.940863   4.740504  16.766716   0.902031  -0.691693   0.275328 
S   13.141119   3.075906  18.364317  -0.727824   0.167705  -0.160686 
S   15.863212   4.643979  18.390766  -0.582644   0.350652  -0.154471 
S   15.854569   4.716774  15.236008  -0.270970   0.303055  -0.266055 
S   13.024861   3.088944  15.183813   0.003235   0.360436   0.086161 
Mo  16.778369   3.083221  16.743863  -0.852535   0.010186   0.036803 
Mo  19.468594   4.709664  16.784468   1.630880   0.531575   0.345981 
S   18.601948   3.129664  18.337656  -0.164091  -0.532969   0.571781 
S   21.365130   4.684332  18.425687  -0.382746   0.258407  -0.389447 
S   21.380980   4.686569  15.213354  -0.324063   0.380564   0.081545 
S   18.616806   3.161695  15.190064  -0.123066  -0.318700  -0.856438 
Mo  22.291176   3.124940  16.805736   0.841130   0.195234  -0.037880 
Mo  25.110096   4.777629  16.797701  -0.048213  -0.227589   0.288192 
S   24.094429   3.226779  18.394087   0.769682  -0.222427   0.294897 
S   27.011668   4.734093  18.481126  -0.991869   0.460329  -0.529915 
S   26.968953   4.789094  15.214591  -0.268010  -0.328175   0.080967 
S   24.262059   3.081202  15.201342  -0.594450   0.626471   0.725702 
Mo  27.841350   3.156996  16.865060   0.508385   0.374410  -0.059253 
Mo  30.664944   4.825844  16.877074  -0.243270  -0.312285  -0.118929 
S   29.752268   3.157990  18.440270  -0.423018   0.451585   0.272663 
S   32.524907   4.773285  18.444316   0.026899   0.524115  -0.219084 
S   32.515667   4.868085  15.222036  -0.344493  -0.376994   0.114230 
S   29.686675   3.216994  15.311183   0.203209   0.095669  -0.545629 
Mo   0.110438   6.386302  16.788473  -0.870230   0.537382   1.489510 
Mo   2.950236   7.997293  16.793059  -0.262891  -0.066587   0.414744 
S    1.942967   6.468334  18.449057   0.008688  -0.211167  -0.442287 
S    4.806497   8.001032  18.370540   0.064398   0.222275   0.208201 
S    4.835555   7.959621  15.204920  -0.683173  -0.408230  -0.657062 
S    1.912821   6.417707  15.271752   0.805856  -0.296350  -0.771369 
Mo   5.720892   6.395616  16.811869  -0.404325  -0.895738   0.427887 
Mo   8.481930   7.998704  16.711534  -0.346700   0.084269  -0.061207 
S    7.579362   6.443172  18.373504   0.199926  -0.360108  -0.143782 
S   10.286745   8.061871  18.314594   0.382980  -0.248254  -0.015377 
S   10.275641   7.962367  15.125378   0.462927   0.214365  -0.200006 
S    7.520195   6.380965  15.156431   0.057027  -0.316789   0.125782 
Mo  11.220162   6.384542  16.743104  -0.605033  -0.457515  -0.553426 
Mo  13.924855   7.902074  16.705589   0.493475   0.433196   1.137415 
S   12.964283   6.299265  18.358876   0.766913   0.604991   0.035779 
S   15.748487   8.010099  18.353087   0.135565  -0.361433   0.112615 
S   15.830327   7.889122  15.230989   0.142350   0.150028  -0.373684 
S   13.079068   6.316619  15.137471  -0.526824  -0.164218  -0.261653 
Mo  16.745136   6.322534  16.853140   0.144425   0.168928  -0.029052 
Mo  19.494627   7.955787  16.815917  -0.260457  -0.495704   0.559844 
S   18.650756   6.319779  18.413437  -0.714454   0.120987   0.143527 
S   21.324617   7.887864  18.446026   0.195838   0.698923  -0.380508 
S   21.268213   7.954792  15.224543   0.738601  -0.255463  -0.114209 
S   18.584845   6.329601  15.235120  -0.264777   0.221341  -0.158041 
Mo  22.237806   6.337901  16.827257   0.646888  -0.181867  -0.630028 
Mo  25.042854   8.041558  16.749665  -1.005088  -0.794929   0.240826 
S   24.156780   6.405431  18.366676  -0.135071  -0.092750  -0.214021 
S   26.765899   8.039938  18.405355   0.815191  -0.119584  -0.019535 
S   26.912800   8.091596  15.247622   0.193646  -0.619229  -0.321381 
S   24.123314   6.312652  15.168154  -0.069866   0.585507   0.670448 
Mo  27.787504   6.376332  16.815561   0.305666   0.945373   0.287315 
Mo  30.597823   8.039904  16.892994   0.154042  -0.336046  -0.478768 
S   29.598391   6.439010  18.389492   0.479463  -0.329595   0.855819 
S   32.494673   8.066674  18.415606   0.305228  -0.205960  -0.060409 
S   32.440581   8.035890  15.282720   0.383491   0.114549  -0.341634 
S   29.731124   6.413737  15.307512  -0.415118  -0.000092  -0.461517 
Mo   0.155837   9.613943  16.756407  -0.169584  -0.354508   0.452241 
Mo   2.910850  11.202935  16.761031  -0.166480   0.390741   0.853319 
S    1.994033   9.585001  18.378300   0.117185   0.292664  -0.236606 
S    4.827101  11.158952  18.307053  -0.120390   0.562732  -0.123904 
S    4.750938  11.158712  15.151002  -0.024989   0.236603  -0.106316 
S    2.082365   9.586963  15.186329  -0.722629  -0.070400  -0.151638 
Mo   5.716451   9.559435  16.709887   0.265645   0.662787   0.492303 
Mo   8.429513  11.285756  16.675662  -0.282542  -0.396083  -0.715497 
S    7.597540   9.625543  18.253002  -0.170414   0.239713   0.416435 
S   10.297041  11.349523  18.206589   0.065574  -0.793139   0.396589 
S   10.216347  11.163961  15.025317   0.536496  -0.004081   0.366201 
S    7.539311   9.557668  15.074699  -0.023841   0.510079   0.387770 
Mo  11.223518   9.621690  16.685151  -0.661376  -0.126100  -0.120278 
Mo  13.971704  11.170905  16.630083  -0.492561   0.323857  -0.064494 
S   13.075057   9.578316  18.270834  -0.287573   0.256082  -0.045210 
S   15.747144  11.254650  18.261016   0.453829   0.066520   0.039137 
S   15.807613  11.128052  15.084537   0.661821   0.193903   0.094984 
S   13.053667   9.497766  15.095056   0.012177   0.235859  -0.204911 
Mo  16.736387   9.578148  16.769758  -0.421105  -0.070838  -0.278242 
Mo  19.496475  11.151128  16.780139  -0.431229   0.274555   0.193671 
S   18.561901   9.595582  18.393456  -0.039796  -0.193218   0.093394 
S   21.340744  11.249542  18.376126   0.027547  -0.302044   0.036560 
S   21.360778  11.190918  15.270858  -0.098313  -0.246125  -1.191522 
S   18.570973   9.464256  15.179362   0.137813   0.707606   0.166433 
Mo  22.231402   9.566437  16.796287   0.224372   0.015987   0.497683 
Mo  25.035688  11.237433  16.817836   0.351470  -0.327812  -1.011280 
S   24.052009   9.608063  18.367087   0.374611  -0.030963   0.118976 
S   26.851282  11.269028  18.482658   0.216719   0.104096  -0.633984 
S   26.943143  11.222240  15.218053  -0.457991   0.102828   0.035256 
S   24.112650   9.633654  15.194208  -0.247668  -0.039770   0.014419 
Mo  27.769414   9.689589  16.860155   1.208275  -1.167382   0.284280 
Mo  30.702816  11.164698  16.850515  -0.602558   0.290586   0.017802 
S   29.670223   9.602873  18.451626  -0.170903   0.460801   0.138113 
S   32.539864  11.160606  18.470714   0.068664   0.341141  -0.484849 
S   32.543908  11.276961  15.226851  -0.174042  -0.338966   0.192840 
S   29.701498   9.583357  15.264690  -0.284849   0.396598   0.153092 
Mo   0.077035  12.821831  16.838983  -0.035165  -0.792757   0.263442 
Mo   2.787958  14.428771  16.800353   1.036156  -0.937860  -0.279215 
S    1.945278  12.834071  18.446620   0.133588  -0.420401  -0.677115 
S    4.750470  14.451797  18.231350  -0.104870  -0.340048   0.719049 
S    4.627010  14.384291  15.108103  -0.177843  -0.068216   0.195535 
S    1.851747  12.780834  15.198044   0.664992   0.316118   0.257795 
Mo   5.696685  12.838625  16.683388  -0.391423  -0.582792  -0.169409 
Mo   8.445427  14.419357  16.546441   0.017297   0.367011   0.273698 
S    7.539503  12.961485  18.281108   0.106915  -0.536585  -0.487901 
S   10.343619  14.439110  18.085989  -0.215900   0.130242   0.200573 
S   10.316195  14.333329  14.937589  -0.307182   0.684331  -0.036963 
S    7.491192  12.864938  14.990000  -0.178748  -0.752987   0.451220 
Mo  11.241826  12.798276  16.561045   0.365338   0.177498  -0.536054 
Mo  13.974740  14.373078  16.527005  -0.004607   0.642413   0.471581 
S   13.070988  12.851825  18.213845  -0.212847  -0.317915  -0.588897 
S   15.758264  14.424713  18.218079   0.023860   0.112689  -0.348992 
S   15.892756  14.354183  15.004636  -0.273583   0.371594  -0.121781 
S   13.099254  12.795854  14.904160  -0.222066  -0.619061   0.786054 
Mo  16.746900  12.833426  16.652953   0.287854  -1.168045  -0.056557 
Mo  19.498413  14.382777  16.730108  -0.218726   0.390014  -0.476574 
S   18.516035  12.823342  18.363423   0.219906  -0.155899  -0.781460 
S   21.328292  14.407178  18.347922  -0.092842   0.137206   0.164398 
S   21.382185  14.434613  15.180234  -0.208200   0.065080  -0.373783 
S   18.703871  12.675820  15.072224  -0.692302   0.756709   0.741789 
Mo  22.245030  12.846348  16.752988   1.117131  -0.526724   0.309959 
Mo  25.089080  14.405341  16.709211   0.099163   0.089400   1.078152 
S   24.136548  12.824203  18.308722  -0.406745   0.595546   0.519199 
S   26.922114  14.346213  18.350328   0.173152   0.784984  -0.016698 
S   26.983358  14.330613  15.203704   0.131631   0.810748  -0.368453 
S   24.155840  12.828909  15.135140  -0.357373  -0.307123   0.178423 
Mo  27.907060  12.790981  16.797826  -1.014936  -0.425388   0.496241 
Mo  30.683130  14.403292  16.831147  -0.674527  -0.111309  -0.530930 
S   29.708903  12.801894  18.380002   0.550941  -0.168064   0.597570 
S   32.455404  14.407645  18.463668   0.417665   0.403254  -0.166171 
S   32.514550  14.409347  15.206855  -0.175634   0.007735   0.255539 
S   29.754023  12.746755  15.261545   0.399414   0.158831  -0.385377 
Mo   0.040566  15.992169  16.774473   0.589174  -0.265868   0.967321 
Mo   2.863068  17.587708  16.775035  -0.420206  -0.018665   0.229521 
S    1.937159  16.041434  18.424343  -0.413353  -0.065199  -0.416071 
S    4.760953  17.533143  18.270515  -0.187012   0.059697   0.757812 
S    4.622537  17.594399  15.126197   0.389435   0.402549  -0.246064 
S    1.919248  15.978728  15.226338  -0.402783   0.293712  -0.587266 
Mo   5.641001  16.000948  16.630966   0.236457  -0.075947  -0.096396 
Mo   8.369495  17.599643  16.611397   0.417631  -0.339192  -0.226399 
S    7.553881  16.001846  18.206017  -0.375111  -0.238935  -0.153014 
S   10.284591  17.519386  18.143468  -0.148724   0.582611   0.070227 
S   10.192377  17.666868  14.959385   0.080302  -0.269344   0.033246 
S    7.413987  15.962593  14.941743   0.396899   0.497636   0.582665 
Mo  11.207886  16.055050  16.482121  -0.188288  -1.094694  -0.307458 
Mo  13.983939  17.604177  16.478669  -0.815398   0.207608  -0.118019 
S   13.002088  16.044913  18.101472   0.571860  -0.200283  -0.367127 
S   15.724955  17.644302  18.128002   0.448948  -0.198420   0.218193 
S   15.873217  17.557490  14.910778  -0.051526   0.574623   0.292270 
S   13.060468  15.970635  14.888128   0.082527   0.104147   0.208353 
Mo  16.694118  16.031364  16.600786   0.698183  -0.563243   0.138683 
Mo  19.543525  17.641369  16.787859  -0.130116  -1.126278  -0.657124 
S   18.479034  15.985841  18.308861   0.243478   0.212231  -0.591814 
S   21.350307  17.575170  18.411117   0.160189  -0.162560   0.080379 
S   21.411688  17.671238  15.199291   0.038771  -0.592187   0.521797 
S   18.610036  16.042358  15.046551   0.376908  -0.011589   1.209935 
Mo  22.340185  15.990033  16.784884  -0.655002   0.649455   0.212917 
Mo  25.095921  17.609127  16.815294   0.030760  -0.487134  -0.447706 
S   24.200762  15.971414  18.412512  -0.180719  -0.145644  -0.539472 
S   26.965347  17.548711  18.383440  -0.310835   0.237488   0.279869 
S   26.938468  17.624417  15.146017  -0.096389  -0.298590   0.590850 
S   24.173123  16.043849  15.187012   0.056182   0.059225  -0.176917 
Mo  27.915120  16.011214  16.780792  -1.107160  -0.809720  -0.707697 
Mo  30.618707  17.570763  16.849549  -0.302210   0.654339  -0.800439 
S   29.683983  15.998905  18.388519   0.346186  -0.333262   0.624696 
S   32.430792  17.588451  18.427689   0.493347   0.145796   0.213534 
S   32.463889  17.626062  15.242045  -0.059340   0.010750  -0.176326 
S   29.755377  15.953214  15.166585   0.017533   0.265042   0.557750 
Mo   0.091608  19.146180  16.815451  -0.670844   0.297396  -0.015232 
Mo   2.831294  20.802988  16.706421   0.117111  -0.532266   0.739681 
S    1.951500  19.199052  18.377063   0.072624  -0.014749  -0.091751 
S    4.624166  20.755740  18.395100   0.135554  -0.056564  -0.309547 
S    4.715445  20.774734  15.139589  -0.522823   0.191187  -0.054434 
S    1.885701  19.141135  15.196073   0.216824   0.280943  -0.374865 
Mo   5.575248  19.193732  16.756011   0.431816  -0.157667  -0.386205 
Mo   8.387992  20.751323  16.717432  -0.227629   0.488811  -0.736342 
S    7.470008  19.140807  18.304262   0.151627   0.036032  -0.114902 
S   10.240387  20.664124  18.242149   0.486499   0.666290   0.443073 
S   10.230051  20.755977  15.062653  -0.265197   0.754236   0.025084 
S    7.417775  19.236484  15.155455  -0.318242  -0.176200  -0.758553 
Mo  11.209416  19.198556  16.587014  -1.054064  -0.882785   0.119906 
Mo  13.989208  20.734001  16.594588  -0.463928   0.809068  -0.491257 
S   13.029733  19.140536  18.149177   0.520963   0.002367   0.058956 
S   15.837869  20.761854  18.165443  -0.111661  -0.456537   0.371741 
S   15.853752  20.748754  15.003001  -0.136275   0.121307  -0.294388 
S   12.946473  19.256440  14.933362   0.869374  -0.300989   0.008626 
Mo  16.787453  19.181858  16.568809   0.497206  -0.052846   0.679744 
Mo  19.637866  20.844063  16.748585  -1.439649  -0.392853   0.126382 
S   18.639427  19.246381  18.355326  -0.658281   0.032626  -0.699346 
S   21.363365  20.856077  18.395455   0.538968   0.271652   0.481154 
S   21.494444  20.856928  15.218654   0.088613  -0.287680  -0.085248 
S   18.784458  19.235576  15.137566  -0.466525  -0.078336  -0.201311 
Mo  22.304364  19.204805  16.887414   0.107741   0.157598  -1.168257 
Mo  25.035916  20.797709  16.841978   0.462099   0.151231  -0.178152 
S   24.126748  19.125623  18.434779   0.462483   0.680236   0.257052 
S   26.938472  20.791806  18.417473  -0.357112   0.003532  -0.115764 
S   26.922439  20.765473  15.179135  -0.517131   0.268173   0.550869 
S   24.112990  19.203465  15.233761   0.213064   0.004818   0.303184 
Mo  27.791302  19.192321  16.810571   0.870609  -0.031504   0.368910 
Mo  30.657673  20.760097  16.793707  -0.447906   0.426211  -0.054610 
S   29.696560  19.224795  18.447748  -0.242466  -0.396530  -0.541572 
S   32.446039  20.766705  18.421718   0.566489   0.209192  -0.036406 
S   32.515960  20.813039  15.247445  -0.173354  -0.631130  -0.447663 
S   29.627432  19.168534  15.271315   0.633185  -0.007409  -0.476999 
Mo   0.058395  22.369125  16.760793   0.136810   0.088002   0.496691 
Mo   2.815795  24.002665  16.792803   0.174026  -0.515227   0.294632 
S    1.910496  22.365944  18.332672  -0.068261   0.078276   0.211057 
S    4.670102  23.990982  18.425933   0.030673  -0.459523  -0.212584 
S    4.683201  24.003653  15.267034   0.143479   0.026349  -0.489492 
S    1.897967  22.392117  15.127862   0.100807   0.313865   0.232200 
Mo   5.570283  22.334004  16.794870  -0.010250   0.847597  -0.316243 
Mo   8.371633  23.927156  16.756842   0.389939   0.753860  -0.755858 
S    7.431572  22.324431  18.278167   0.367959  -0.087173   1.000862 
S   10.249941  23.911220  18.302829   0.213525   0.108482   0.248899 
S   10.263434  24.017965  15.146583  -0.351195  -0.599101  -0.056263 
S    7.370503  22.419362  15.111039   0.357113  -0.536058   0.532475 
Mo  11.163795  22.348483  16.700092   0.440055  -0.132254  -0.732593 
Mo  14.011238  23.967550  16.673771   0.058427  -0.240052  -0.323760 
S   13.071270  22.316269  18.230465  -0.001924  -0.045387  -0.063122 
S   15.814905  23.892349  18.238183   0.605975   0.710006   0.004847 
S   15.938648  24.085939  15.026371  -0.727973  -0.858709   0.325271 
S   13.050596  22.427236  15.033986  -0.213364  -0.390251   0.646550 
Mo  16.746632  22.348309  16.613096   0.197002   0.749697  -0.136898 
Mo  19.555748  23.999416  16.695371  -0.564662   0.438019   0.506479 
S   18.550114  22.415563  18.253535   0.201743  -0.067659   0.301428 
S   21.307935  24.064886  18.391803   0.165932  -0.385887  -0.129136 
S   21.395120  24.028297  15.151221   0.485590  -0.018942  -0.023312 
S   18.646480  22.372410  15.143997   0.276358   0.122853  -0.835982 
Mo  22.326548  22.475147  16.802390   0.185523  -0.322336   0.589712 
Mo  25.147750  23.981029  16.823242  -1.225665   0.022882   0.563208 
S   24.153255  22.431359  18.490075   0.052386  -0.110014  -1.033000 
S   26.974034  23.919665  18.415800  -0.164440   0.302380   0.263525 
S   26.983173  23.977174  15.260165  -0.345346   0.152997  -0.633344 
S   24.142025  22.430659  15.185837   0.555660  -0.078206   0.704114 
Mo  27.868187  22.364341  16.789733   0.887662  -0.081267   0.069951 
Mo  30.634439  24.050962  16.811005  -0.385071  -0.548877  -0.069741 
S   29.786421  22.386366  18.357445  -0.607384   0.166730   0.121978 
S   32.455169  24.004990  18.373140   0.403679   0.278686   0.170196 
S   32.486065  23.989025  15.190411  -0.208197   0.343584   0.001988 
S   29.778885  22.408376  15.171183  -0.401758  -0.061394   0.580912 
