288
Lattice="33.332188 0.0349 0.030858 0.026855 25.658136 -0.000664 0.027082 9e-05 30.572677 " PBC="1 1 1" Properties="species:S:1:pos:R:3:force:R:3" Energy=" -5.284767"
Mo   0.073875  -0.051085  16.780599   0.145012   0.046370   0.044389 
Mo   2.812565   1.557135  16.808995   0.198444  -0.321512  -0.275627 
S    1.884544  -0.070230  18.353638   0.369822   0.195165   0.636415 
S    4.694153   1.457813  18.364405   0.060784   0.620384  -0.045493 
S    4.635922   1.557649  15.205444   0.331069  -0.140923  -0.062256 
S    1.924333  -0.047515  15.203250   0.115168  -0.335283   0.036269 
Mo   5.636312  -0.087122  16.733548  -0.512618  -0.144851   0.171937 
Mo   8.475939   1.555801  16.703191  -1.228295  -1.131211   0.488343 
S    7.503251  -0.064429  18.329969   0.011755   0.497737  -0.282938 
S   10.335082   1.458114  18.397729  -0.806010   0.487543  -0.745377 
S   10.263100   1.470163  15.074486   0.140731   0.287426   0.376240 
S    7.431198  -0.102025  15.110629   0.686089   0.129433   0.601656 
Mo  11.165122  -0.103806  16.736960   0.312493   0.198517   0.611055 
Mo  13.922445   1.492196  16.802380   0.516427   0.335990   0.116882 
S   12.993203  -0.110186  18.425409  -0.023548   0.007039  -0.750178 
S   15.843797   1.579175  18.397157  -0.830657  -0.601780  -0.101805 
S   15.776440   1.482566  15.161218  -0.041788   0.316850   0.442296 
S   13.021901  -0.103220  15.176721  -0.002312  -0.048599  -0.151767 
Mo  16.723206  -0.072471  16.799667  -0.560250  -0.285316  -0.150557 
Mo  19.474989   1.447518  16.856229   0.003757   0.538720   0.040710 
S   18.462277  -0.181796  18.453586   0.709926   0.722955  -0.097607 
S   21.354449   1.519402  18.401276  -0.013592  -0.252512   0.220447 
S   21.323606   1.478207  15.272327   0.033773  -0.150083  -0.299645 
S   18.602953  -0.091236  15.176244  -0.304829  -0.350615   0.644857 
Mo  22.262937  -0.136592  16.835492  -0.016430  -0.183490  -0.061435 
Mo  25.011350   1.547113  16.808805   1.583458  -1.409801   0.144888 
S   24.149474  -0.113730  18.370994  -0.153390  -0.136007   0.115330 
S   26.958262   1.555604  18.412029  -0.400127  -0.105323  -0.450699 
S   26.898679   1.491251  15.214950   0.450780   0.574243   0.530528 
S   24.091446  -0.077746  15.208672  -0.143397  -0.004166  -0.246210 
Mo  27.929473  -0.067458  16.814084  -1.876039   0.072445   0.332546 
Mo  30.648932   1.548248  16.863311  -0.075859   1.241076  -0.361154 
S   29.676305   0.049687  18.443873   0.470882  -0.807629   0.374597 
S   32.538946   1.563526  18.435102  -0.263502   0.574185  -0.397758 
S   32.477382   1.600984  15.231326  -0.155446  -0.525617  -0.373822 
S   29.757460  -0.044139  15.251356  -0.097292   0.124878  -0.504215 
Mo   0.094523   3.164842  16.711677  -0.737184  -0.494218   0.515542 
Mo   2.876680   4.746342  16.795021  -1.379165  -0.058244  -1.210583 
S    1.855528   3.175595  18.362375   0.534795  -0.046061   0.242807 
S    4.640180   4.695433  18.362742   0.831577   0.479929   0.709506 
S    4.688439   4.714475  15.186886   0.323647   0.553050   0.089580 
S    1.893796   3.118136  15.159834   0.816693   0.313953  -0.031403 
Mo   5.606216   3.161330  16.794539   0.305654  -1.385413  -0.354656 
Mo   8.329440   4.762683  16.761712   0.373202  -0.046049  -0.178016 
S    7.501110   3.096718  18.334427  -0.119359   0.173323   0.087096 
S   10.219942   4.766684  18.296084  -0.067917  -0.343639   0.494808 
S   10.186508   4.743378  15.192320   0.096255  -0.001769  -0.419351 
S    7.434046   3.123803  15.122268   0.144565   0.218667   0.551908 
Mo  11.096858   3.089369  16.737667   0.958953   0.464013   0.236848 
Mo  13.992271   4.789259  16.755290  -0.794105  -0.151742  -0.040177 
S   12.981654   3.195217  18.325865   0.148823  -0.273544   0.006558 
S   15.856311   4.841572  18.330006  -0.453058  -0.733570   0.394091 
S   15.806824   4.780182  15.143040   0.257632  -0.244630   0.176911 
S   12.990335   3.120321  15.214888   0.342486   0.058623  -0.130175 
Mo  16.662610   3.122323  16.778764   1.482064   0.749358  -0.454814 
Mo  19.554301   4.737549  16.833526   0.362610  -0.414093  -1.399380 
S   18.610158   3.164388  18.403848  -0.708291  -0.561670  -0.105628 
S   21.426781   4.751057  18.343466  -0.004396  -0.004426   0.891007 
S   21.415530   4.706822  15.210653  -0.161098   0.476483  -0.065838 
S   18.625694   3.102547  15.254372  -0.487198  -0.113315   0.188388 
Mo  22.289097   3.120498  16.798725  -0.120364  -0.369302  -0.316841 
Mo  25.134303   4.718623  16.773132  -0.290987   0.231501   0.441487 
S   24.101712   3.115538  18.333633   0.515748   0.462054   1.064617 
S   26.971163   4.736210  18.415020  -0.482497   0.092409   0.103895 
S   26.971633   4.784798  15.200045   0.027266  -0.408136  -0.154536 
S   24.157254   3.076777  15.235188  -0.257646   0.752216  -0.830562 
Mo  27.888384   3.186733  16.836471  -0.725152  -0.783407  -0.850066 
Mo  30.649832   4.781440  16.791178  -0.140705   0.159808  -0.716861 
S   29.717549   3.257877  18.417227   0.256511  -0.643938   0.089582 
S   32.494478   4.757313  18.286673   0.020018   0.059368   1.349608 
S   32.466477   4.800732  15.128770   0.026211  -0.225147   0.288419 
S   29.693185   3.143283  15.233975   0.366969  -0.054492  -0.013292 
Mo   0.089584   6.301869  16.738731  -0.212296   0.743141  -0.312150 
Mo   2.840635   7.944524  16.759701  -0.242943  -0.185938   0.067805 
S    1.920238   6.364504  18.354858  -0.007416  -0.306318   0.081243 
S    4.658982   7.877827  18.379302   0.208591   0.823834  -0.095364 
S    4.652335   7.974244  15.141022   0.693861  -0.201991   0.663291 
S    1.889336   6.328014  15.130881   0.787145   0.046233   0.390235 
Mo   5.641783   6.351797  16.816195  -1.051891  -0.267358  -1.045749 
Mo   8.430856   7.929124  16.794974  -0.193039   0.076499  -0.147494 
S    7.470312   6.370610  18.411306   0.130198  -0.392733  -0.114339 
S   10.250106   7.955457  18.403734   0.303231  -0.522222  -0.149958 
S   10.296992   7.959635  15.157796  -0.332728   0.211322   0.484256 
S    7.432296   6.387823  15.179137   0.289280  -0.170069  -0.022538 
Mo  11.178617   6.346871  16.745339   0.113306   0.309289   0.136731 
Mo  13.993136   8.017063  16.718766  -0.365907  -1.018251   0.276166 
S   13.032645   6.398134  18.347668   0.227498  -0.113810  -0.460020 
S   15.842948   7.948404  18.305404   0.060337   0.272587   0.247308 
S   15.877963   7.969220  15.122726  -0.029807   0.299916   0.459344 
S   13.025189   6.337031  15.122390   0.247257   0.402247   0.503418 
Mo  16.782918   6.363356  16.744400   0.697279   0.014093  -0.723473 
Mo  19.633682   7.948281  16.824670  -0.715776  -0.016277  -0.453668 
S   18.682262   6.321550  18.346388  -0.732747   0.531313   0.624587 
S   21.472705   7.897938  18.431330   0.022555   0.488439  -0.006966 
S   21.440466   8.050984  15.241456   0.706800  -0.501713   0.065520 
S   18.713397   6.322008  15.167201  -0.211889   0.339190   0.529013 
Mo  22.385980   6.354216  16.806708  -0.331564   0.256585  -0.479195 
Mo  25.210668   7.995851  16.833938  -0.468104   0.276495   0.442434 
S   24.291263   6.383419  18.353672  -0.456424  -0.673868   0.459314 
S   27.021920   7.891090  18.455379  -0.061360   0.441010   0.219203 
S   27.025493   8.011454  15.281649   0.339207   0.308384  -0.261796 
S   24.224633   6.407008  15.256261   0.213715  -0.203392  -0.561006 
Mo  27.879351   6.336295  16.818977   0.602471   0.380826  -0.184099 
Mo  30.639231   8.051346  16.861026  -0.246870  -1.157155  -0.540650 
S   29.702241   6.328910  18.431963   0.383601   0.565669  -0.330507 
S   32.466334   7.889180  18.377237   0.567564   0.698088   0.343975 
S   32.484670   7.945573  15.203355  -0.235474   0.613038   0.263885 
S   29.767009   6.416479  15.200103  -0.449644   0.158290   0.515566 
Mo   0.054201   9.562500  16.790536   0.020644  -0.067606  -0.213897 
Mo   2.859453  11.132728  16.786274  -0.417982   1.062022   0.875097 
S    1.881660   9.544074  18.369747   0.327764  -0.077042   0.093542 
S    4.659826  11.131723  18.390960   0.429174   0.140181  -0.003524 
S    4.675051  11.202617  15.187701   0.730632   0.013128   0.389614 
S    1.954190   9.591395  15.243246  -0.676235  -0.411753  -0.884940 
Mo   5.621389   9.556593  16.785208  -0.404376  -0.361078  -0.023395 
Mo   8.384242  11.148484  16.922767   0.224374   0.117360  -0.705488 
S    7.441752   9.479675  18.399112   0.062162   0.091401   0.313124 
S   10.283161  11.109108  18.465996  -0.101125   0.229559   0.076465 
S   10.217915  11.224038  15.276455   0.314110  -0.323050   0.521818 
S    7.530272   9.561519  15.262017  -0.299697   0.351087  -0.217917 
Mo  11.191950   9.543382  16.836784  -0.157882   0.441490  -0.758731 
Mo  13.957707  11.172673  16.859083   0.358048  -0.869966  -0.648780 
S   13.041372   9.540915  18.421791   0.233784  -0.160767  -0.213250 
S   15.875498  11.096172  18.403507  -0.178369   0.462645  -0.109275 
S   15.749432  11.188545  15.232757   0.813059  -0.029229   0.075478 
S   13.012186   9.596402  15.190983   0.058720   0.387451   0.052703 
Mo  16.829612   9.574755  16.770540  -0.465962  -0.520776  -0.598090 
Mo  19.548339  11.171748  16.877971   0.918895  -0.932594   0.067482 
S   18.637573   9.515489  18.428376   0.016160   0.069205  -0.183327 
S   21.426065  11.228109  18.494552   0.005512  -0.588470  -0.326483 
S   21.470979  11.130841  15.319064  -0.077387   1.009940   0.174290 
S   18.719018   9.516041  15.153915  -0.114590   0.577755   0.980167 
Mo  22.420865   9.585829  16.877587  -0.318168  -0.376779   1.094407 
Mo  25.079797  11.258418  17.021228   0.583540   0.015913  -0.022917 
S   24.285314   9.511640  18.531048  -0.531175   0.213937  -0.221205 
S   26.941332  11.205987  18.593675   0.308903   0.064388  -0.309134 
S   26.915265  11.190456  15.467710   0.152608   0.381138  -0.840105 
S   24.327379   9.712873  15.368711  -0.674839  -0.448801  -0.732015 
Mo  27.935900   9.605254  16.955604  -0.454189  -0.129873   0.094134 
Mo  30.657152  11.268161  16.897098  -0.482061   0.414572  -0.111184 
S   29.795556   9.663670  18.514586  -0.086167  -0.356323  -0.030965 
S   32.472343  11.186493  18.462583   0.615685   0.214401  -0.122621 
S   32.491364  11.292195  15.234687  -0.230354  -0.473053   0.237030 
S   29.735977   9.693444  15.307419  -0.125363  -0.111595  -0.075286 
Mo   0.079847  12.800902  16.820064  -0.396481  -0.018926  -0.130211 
Mo   2.865365  14.356542  16.886963  -0.119802   0.689520  -1.128697 
S    1.877420  12.775836  18.380317   0.576585  -0.673764   0.659108 
S    4.656227  14.439673  18.453625   0.674094  -0.572170   0.388755 
S    4.687867  14.371178  15.236964   0.208128   0.371406   0.484519 
S    1.955033  12.795886  15.253109  -0.200794   0.070988  -0.242281 
Mo   5.625672  12.816501  16.857301  -0.412683  -0.808162   0.516033 
Mo   8.437431  14.308636  16.890722   0.072482   0.269179   0.783284 
S    7.479593  12.730690  18.538300  -0.342808   0.127664  -0.563955 
S   10.290458  14.323010  18.530367  -0.318298   0.177819  -0.142300 
S   10.303063  14.296267  15.300005  -0.441848   0.342160  -0.316879 
S    7.457515  12.770317  15.315183   0.341017  -0.280682  -0.271159 
Mo  11.218105  12.783629  16.908075  -0.066556  -0.904060  -0.093960 
Mo  14.013819  14.354430  16.903283  -0.041118   0.473149   0.330875 
S   13.101881  12.697822  18.446704  -0.244901   0.602448   0.812161 
S   15.874792  14.310269  18.501559  -0.158954   0.424856  -0.252851 
S   15.835296  14.382042  15.271161  -0.057805  -0.205894  -0.267520 
S   13.076109  12.840384  15.314346  -0.357688  -0.539618  -0.384987 
Mo  16.750002  12.787884  16.834661   0.132543  -0.855430   0.317804 
Mo  19.545242  14.379484  16.911908   1.041259  -0.546354  -0.448397 
S   18.594127  12.775065  18.452955  -0.017012  -0.218338   0.294880 
S   21.407887  14.391055  18.542811  -0.329768  -0.177030  -0.196541 
S   21.455431  14.382410  15.292087  -0.471506  -0.190455   0.443705 
S   18.672794  12.735697  15.350448  -0.428245   0.482864  -1.028366 
Mo  22.412273  12.831980  16.941209  -1.838305  -0.519352  -0.079174 
Mo  25.028699  14.433205  16.975114   1.030113   0.312551   0.599702 
S   24.193378  12.875409  18.599396  -0.373947  -0.403170   0.169703 
S   26.924460  14.471296  18.567272  -0.303502   0.100359  -0.307638 
S   26.874180  14.387307  15.381525  -0.118039   0.663762  -0.602369 
S   24.150560  12.865377  15.336660   0.729404  -0.464295   0.061476 
Mo  27.798129  12.877411  16.949531   1.097609  -1.040488   1.147733 
Mo  30.621595  14.476075  16.908238   0.113577  -0.310785   0.647887 
S   29.683694  12.871268  18.561073   0.278098  -0.076662  -0.901942 
S   32.521912  14.417152  18.466910  -0.289802   0.188749   0.040502 
S   32.481913  14.500906  15.292965  -0.041639  -0.076854   0.141068 
S   29.663478  12.903301  15.346429  -0.038931  -0.372273  -0.083519 
Mo   0.109607  16.034248  16.872046  -0.078124  -0.216080  -0.174315 
Mo   2.864192  17.611748  16.896765   0.213260  -0.052853   0.304332 
S    1.933946  15.933878  18.460181   0.096652   0.556648   0.346728 
S    4.686395  17.630563  18.529379   0.403548  -0.297250  -0.803553 
S    4.695250  17.606151  15.243605   0.047999  -0.222739   0.559836 
S    2.012975  16.037701  15.306112  -0.631561  -0.367644  -0.186127 
Mo   5.618541  15.990700  16.868186  -0.064953   0.020642  -0.023292 
Mo   8.385360  17.569834  16.854817   0.146768  -0.451346   0.470514 
S    7.488159  15.925175  18.482171  -0.045954   0.277686  -0.338217 
S   10.234962  17.634357  18.452091  -0.073371  -0.917761   0.162774 
S   10.259612  17.611337  15.297433  -0.388599  -1.184939  -0.396490 
S    7.513897  15.884978  15.305326  -0.293882   0.558281  -0.173064 
Mo  11.156123  15.890977  16.891331  -0.013739   1.544274  -0.433456 
Mo  13.917903  17.514021  16.847108   0.614148   0.406135  -0.569894 
S   12.959809  15.971118  18.453630   0.681288  -0.427571   0.415482 
S   15.794692  17.522828  18.394890   0.154737  -0.090848   0.243157 
S   15.825944  17.521209  15.232970  -0.166122  -0.281784   0.324228 
S   13.058456  15.905397  15.284947  -0.536222  -0.026363   0.004210 
Mo  16.807349  15.914905  16.851395  -1.686334   0.304128   0.353052 
Mo  19.500469  17.574127  16.910294   0.206046  -0.613563  -1.111922 
S   18.575403  15.919412  18.452203   0.368232   0.516208   0.888025 
S   21.332606  17.549099  18.497737   0.116970   0.187042   0.159389 
S   21.400439  17.511952  15.272238  -0.613913  -0.018778   0.344788 
S   18.599252  15.909657  15.302965   0.645125   0.564629  -0.399029 
Mo  22.289661  15.963854  16.929039   0.387097   0.530848   0.089677 
Mo  25.067912  17.612231  16.922565   0.041557  -0.051800   0.191818 
S   24.088187  16.072170  18.630470   0.344284  -0.091559  -1.048751 
S   26.910906  17.683225  18.504061   0.332428  -0.443877  -0.002481 
S   26.945246  17.655030  15.316076  -0.320307  -0.583068  -0.246620 
S   24.175648  15.995800  15.373606  -0.348035   0.038781  -0.391058 
Mo  27.828986  16.046982  16.907901   0.226808  -0.099254   0.507963 
Mo  30.651502  17.605528  16.958841  -0.044026   0.704213  -0.122511 
S   29.664624  16.029223  18.557369   0.192138   0.029480  -0.473382 
S   32.499209  17.606086  18.559492   0.230644   0.577805  -0.389997 
S   32.498538  17.707497  15.345004   0.091682  -0.172947   0.303384 
S   29.712024  16.052233  15.313364  -0.229980   0.147482   0.215260 
Mo   0.076716  19.292248  16.938246   0.190532  -1.289577  -0.529458 
Mo   2.942636  20.766003  16.820535  -0.500457   0.514821   0.586979 
S    1.974461  19.262190  18.481427  -0.084521  -0.155810  -0.038035 
S    4.779404  20.838765  18.409339  -0.116216  -0.209439   0.212426 
S    4.806326  20.780247  15.194354  -0.468469  -0.187474   0.243495 
S    1.934414  19.180920  15.287154  -0.233357   0.100473   0.124336 
Mo   5.642143  19.173202  16.849967   0.096033   0.364485   0.310756 
Mo   8.477669  20.741686  16.839977  -1.051114   0.150513  -0.231651 
S    7.488948  19.183379  18.468667   0.019474  -0.086765  -0.245711 
S   10.268675  20.763129  18.460472   0.125043   0.026904  -0.124730 
S   10.287119  20.735235  15.177317  -0.386540  -0.074217   0.289567 
S    7.452560  19.146036  15.260617   0.463061   0.150204  -0.054127 
Mo  11.138075  19.153969  16.842986   1.425615   0.907200   0.373405 
Mo  13.991763  20.719783  16.811842  -0.465337  -0.601563   0.130429 
S   13.085238  19.159333  18.427291  -0.673138  -0.068666  -0.182315 
S   15.800433  20.784752  18.448986   0.310071  -0.524199  -0.485135 
S   15.839840  20.724634  15.215380  -0.093990  -0.187327   0.040659 
S   12.941212  19.088577  15.185055   0.650490   0.205754   0.720468 
Mo  16.763466  19.108074  16.820699  -0.889984   0.896145   0.461126 
Mo  19.391758  20.725807  16.894720   1.330655   0.473185  -0.323730 
S   18.544093  19.145474  18.476028  -0.242432  -0.089005   0.478056 
S   21.265468  20.696994  18.497002   0.307194   0.355368  -0.403108 
S   21.261880  20.731898  15.317197   0.057272  -0.448883  -0.365279 
S   18.581879  19.148402  15.243234   0.188181  -0.368863   0.065753 
Mo  22.230640  19.129056  16.870696   0.398657   0.354182   0.314257 
Mo  25.114883  20.772290  16.743655  -0.920135  -0.046903   1.224079 
S   24.128783  19.245430  18.425995   0.009087   0.175828  -0.032516 
S   26.928832  20.795218  18.402775  -0.018064  -0.004128   0.047480 
S   26.967523  20.734883  15.244361   0.557750   0.182291  -0.414890 
S   24.096336  19.116562  15.276005   0.128589   0.131368  -0.208486 
Mo  27.924217  19.188182  16.877118  -0.640305   0.525254   0.291592 
Mo  30.598178  20.844991  16.937617   1.373892  -0.122666  -0.330985 
S   29.737021  19.270649  18.517488  -0.289364  -0.666078   0.184620 
S   32.442677  20.890681  18.519570   0.095740   0.033683   0.605064 
S   32.482133  20.874211  15.308104  -0.042884   0.006562   0.662627 
S   29.784001  19.200256  15.310823  -0.068401  -0.090198   0.129227 
Mo   0.096647  22.400616  16.929897   0.005971   0.317429  -0.733182 
Mo   2.874046  23.967383  16.833517   0.315436   0.765512  -0.092709 
S    1.998255  22.424577  18.441953   0.042991  -0.641473   0.271539 
S    4.799987  24.005340  18.420632  -0.452493  -0.036631  -0.486425 
S    4.640591  23.899170  15.192848   0.603278   0.676049   0.001554 
S    1.953557  22.349963  15.312660  -0.358100   0.091866  -0.509341 
Mo   5.660912  22.393311  16.805361   1.009428  -0.127810   0.132595 
Mo   8.452953  23.980321  16.787872  -0.176052   0.351997  -0.042755 
S    7.579676  22.379176  18.437343  -0.481216   0.198369  -0.586372 
S   10.272423  24.019462  18.415752   0.067091  -0.435843  -0.543919 
S   10.264384  23.980622  15.159425   0.058822  -0.557058   0.081954 
S    7.572230  22.385083  15.237057  -0.469041  -0.428585  -0.029500 
Mo  11.136501  22.335316  16.798740   0.645172   0.276217   0.095016 
Mo  13.877638  23.924718  16.770744   0.740721   0.619523   0.562363 
S   12.995105  22.326442  18.377480   0.071411  -0.058384   0.119826 
S   15.716331  23.949833  18.348225   0.259830   0.325520   0.275436 
S   15.790348  23.965342  15.257458  -0.009400  -0.026172  -0.556123 
S   13.059957  22.249609  15.264017  -0.668591   0.473557  -0.906744 
Mo  16.705857  22.349792  16.805927   0.112645  -0.027874   0.078754 
Mo  19.483190  23.947930  16.845533   0.200292  -0.655824  -0.496754 
S   18.510098  22.393144  18.432702  -0.032285  -0.049529   0.151829 
S   21.407466  23.847936  18.434458  -0.425559   0.579753  -0.117666 
S   21.356394  23.826958  15.272150   0.064355   0.661606   0.033069 
S   18.567414  22.283652  15.211534  -0.049606   0.610747   0.387627 
Mo  22.318091  22.265452  16.844374  -1.091982   0.167275   0.409677 
Mo  25.029666  23.935553  16.725496   0.899853   0.728590   0.818667 
S   24.179946  22.390485  18.356205   0.184158  -0.464161   0.255280 
S   26.909455  23.941249  18.407595  -0.010560   0.521918  -0.755573 
S   26.948775  24.002923  15.235220   0.348464  -0.438635  -0.199399 
S   24.067250  22.304644  15.162323   0.519765   0.022491  -0.170692 
Mo  27.900033  22.367122  16.828330  -0.761895   0.478995   0.103510 
Mo  30.661692  24.066357  16.849454   0.268182  -0.878853   1.019771 
S   29.664717  22.454527  18.518266   0.276816   0.309030  -0.501237 
S   32.532164  24.126713  18.489555  -0.471129  -0.323620  -0.178372 
S   32.567605  23.980467  15.288859  -0.499026   0.105189  -0.092624 
S   29.777324  22.353298  15.312909  -0.316150   0.823277  -0.593912 
