288
Lattice="33.327948 0.034936 0.030874 0.026883 25.65717 -0.000664 0.027097 9e-05 30.543198 " PBC="1 1 1" Properties="species:S:1:pos:R:3:force:R:3" Energy=" -5.285737"
Mo   0.038429  -0.049899  16.817754  -0.367049  -0.048664  -0.171514 
Mo   2.820873   1.580268  16.759763  -0.377595  -0.440906   0.194227 
S    1.856540  -0.020000  18.383627   0.689480  -0.087699  -0.066418 
S    4.704741   1.595854  18.308747   0.055420  -0.092540  -0.065528 
S    4.656825   1.511642  15.140625   0.182009   0.158215  -0.082018 
S    1.855557  -0.053825  15.246714   0.247154   0.031718  -0.693618 
Mo   5.621755  -0.049706  16.760835  -0.374014  -0.361918  -0.383584 
Mo   8.438967   1.618627  16.707728  -0.450178  -0.901658  -0.300867 
S    7.464851   0.036069  18.338537   0.329803  -0.515552  -0.439115 
S   10.247808   1.605694  18.318520   0.206704  -0.388257  -0.234636 
S   10.269046   1.605061  15.045483  -0.191071  -0.384759   0.342138 
S    7.491375  -0.063007  15.123228  -0.395533   0.440027   0.514286 
Mo  11.170959  -0.008828  16.685490  -0.418385  -0.158661   0.106394 
Mo  13.929460   1.516614  16.704477   0.887870   0.514767  -0.060004 
S   12.978858  -0.044650  18.338896   0.221936   0.064558  -0.494536 
S   15.824659   1.559994  18.304616  -0.641099  -0.134506  -0.036883 
S   15.846625   1.518568  15.071531  -0.642784   0.202372   0.403535 
S   13.033197  -0.033849  15.077392  -0.372155   0.064628   0.007223 
Mo  16.767729  -0.025038  16.715381  -0.838254  -0.282534  -0.085500 
Mo  19.458311   1.569324  16.734500  -0.136885  -0.058847   0.608289 
S   18.571860  -0.024414  18.354116  -0.282355   0.345987   0.111258 
S   21.254856   1.636451  18.397005  -0.060849  -0.409726  -0.026676 
S   21.298166   1.545006  15.222698   0.667218   0.182978  -0.528656 
S   18.561171  -0.061428  15.143279   0.571500  -0.075367  -0.148940 
Mo  22.236434   0.010899  16.850150  -0.337753  -0.051399   0.139620 
Mo  25.051243   1.600799  16.907614   0.848278  -1.158672   0.174393 
S   23.986992   0.031817  18.548197   0.471842   0.333553  -0.311506 
S   26.984592   1.564577  18.522928  -0.613784  -0.106592  -0.563360 
S   26.953222   1.558202  15.232663  -0.163474  -0.122718   1.187926 
S   24.146536   0.025343  15.327630  -0.274396  -0.203111  -0.298668 
Mo  27.908895  -0.047775  16.906748  -2.091624  -0.318209   0.325793 
Mo  30.556087   1.502685  16.907265   0.305143   1.457409   0.007694 
S   29.721978  -0.130406  18.536498  -0.129802   0.179142  -0.257931 
S   32.414696   1.557511  18.424078   0.367281   0.428673   0.402495 
S   32.394988   1.606994  15.288023  -0.026372  -0.328079  -0.106562 
S   29.685113  -0.046005  15.328140  -0.068999  -0.169500  -0.974123 
Mo   0.013293   3.200548  16.811954  -0.343699  -0.976742   0.581145 
Mo   2.876118   4.743207  16.732000  -1.436948   0.205750  -0.384197 
S    1.893845   3.190459  18.349965   0.308639  -0.053686   0.091593 
S    4.692474   4.721697  18.248315   0.670022   0.325287   0.679281 
S    4.673280   4.725707  15.153918   0.329916   0.619296  -0.908740 
S    1.763487   3.129001  15.167998   0.916741   0.269528  -0.008220 
Mo   5.650359   3.167525  16.657003  -0.021118  -0.817641   0.627757 
Mo   8.362822   4.796773  16.692809  -0.001812   0.025131   0.477224 
S    7.463020   3.181430  18.309244   0.083101   0.167961  -0.256709 
S   10.243256   4.754455  18.275208  -0.148347  -0.016625   0.325530 
S   10.207559   4.783223  15.165329   0.502405   0.125980  -0.678502 
S    7.539529   3.192128  15.091207  -0.531434  -0.082614  -0.162460 
Mo  11.157484   3.145395  16.683490   0.331951   0.501509  -0.176677 
Mo  13.992122   4.780776  16.624120  -0.448194  -0.218939   0.833310 
S   13.008359   3.201738  18.231147   0.365611  -0.322993   0.173976 
S   15.745413   4.750242  18.303360   0.356104  -0.142250  -0.181379 
S   15.881248   4.834505  15.063496  -0.601846  -0.876869  -0.171897 
S   13.072668   3.168763  15.102903  -0.453014  -0.423978  -0.194162 
Mo  16.664338   3.145794  16.684327   0.994751   0.450309  -0.167840 
Mo  19.458406   4.737027  16.709597   0.598988  -0.461782  -0.454724 
S   18.500562   3.187612  18.321826  -0.195431  -0.306686  -0.297504 
S   21.236675   4.671149  18.402018   0.165856   0.442606  -0.168698 
S   21.376629   4.757796  15.212052  -0.102766   0.000034  -0.497554 
S   18.591202   3.124654  15.093024  -0.531473   0.132844   0.231506 
Mo  22.249382   3.158765  16.802610  -0.218065  -0.262893  -0.020479 
Mo  25.029622   4.737914  16.907541   0.229117   0.429259   0.204335 
S   24.055466   3.134391  18.420999  -0.008575   0.331118   0.910124 
S   26.909539   4.774061  18.496891  -0.436088  -0.231869   0.357530 
S   26.879590   4.754896  15.331870   0.151803   0.083188  -0.285542 
S   24.168913   3.161487  15.309076  -0.195414  -0.103291  -0.665358 
Mo  27.831795   3.167452  16.897185  -0.370256  -0.131796  -0.647388 
Mo  30.582015   4.790255  16.933836  -0.005292  -0.177952  -0.396221 
S   29.587391   3.148752  18.489948   1.000758  -0.065297   0.269401 
S   32.462675   4.835514  18.468868   0.124013  -0.356754   0.308682 
S   32.377601   4.780819  15.286842   0.099339   0.301895  -0.327161 
S   29.709919   3.208671  15.292810  -0.374804  -0.426461   0.467514 
Mo   0.125085   6.293092  16.796211  -0.736694   1.226139   0.425600 
Mo   2.849735   7.966210  16.783722  -0.015521  -0.223758   0.021048 
S    1.979550   6.321482  18.389131   0.067087   0.016386  -0.361223 
S    4.698245   7.978992  18.404893   0.287736  -0.193805  -0.880653 
S    4.636027   7.921465  15.112319   0.324461   0.608948   0.362403 
S    1.919792   6.401958  15.146829   0.164428  -0.511891   0.265648 
Mo   5.639899   6.391646  16.711214  -1.024432  -0.562523  -0.112370 
Mo   8.410179   7.921299  16.671899   0.267842   0.176928   0.700557 
S    7.397837   6.353499  18.312713   0.903687   0.189664  -0.010147 
S   10.299946   7.948181  18.360173  -0.342061  -0.099812  -0.834738 
S   10.293104   7.980801  15.145102   0.098331  -0.368572  -0.082702 
S    7.451174   6.395095  15.051578   0.014864  -0.269209   0.327272 
Mo  11.231720   6.338235  16.745862  -0.503009   0.241829   0.067283 
Mo  13.909624   7.922640  16.709752   0.308544  -0.511113   0.922018 
S   13.090562   6.226707  18.399188  -0.365962   0.699007  -1.240075 
S   15.773249   7.880148  18.352512  -0.244430   0.125561  -0.272175 
S   15.777472   7.967735  15.146932   0.154439  -0.085112   0.057304 
S   12.977324   6.325036  15.063993   0.360883   0.424029   0.242892 
Mo  16.702585   6.328502  16.714258   0.756702   0.413060   0.134415 
Mo  19.462128   7.929215  16.728537  -0.264140  -0.257963   0.785220 
S   18.585505   6.233375  18.292396  -0.662438   0.972542   0.417807 
S   21.229312   7.915167  18.381432   0.386890   0.320033   0.190307 
S   21.342321   7.972250  15.242404   0.239707  -0.361239  -0.494797 
S   18.588707   6.365112  15.084458  -0.239876  -0.225951   0.396154 
Mo  22.221259   6.317322  16.853375  -0.025140   0.449286  -0.767944 
Mo  24.993536   7.943391  16.847497   0.016365   0.350339   0.012699 
S   24.006064   6.378802  18.412213   0.556901  -0.392554   0.816994 
S   26.804499   8.015457  18.492401   0.359244  -0.264944  -0.238910 
S   26.859337   7.935128  15.298841   0.298226   0.007739  -0.095847 
S   24.164718   6.293930  15.286217  -0.687488   0.286857  -0.208196 
Mo  27.760971   6.362129  16.931237   0.988538   0.482952  -0.310949 
Mo  30.649221   7.972547  16.879464  -0.578542  -0.646139  -0.060136 
S   29.688796   6.395270  18.508025  -0.297333   0.125634  -0.092156 
S   32.534167   7.991348  18.445553  -0.155974  -0.439244  -0.044320 
S   32.445493   7.926513  15.298380   0.540883   0.361145  -0.350633 
S   29.625359   6.345167  15.285388   0.074516   0.293481   0.698228 
Mo   0.064124   9.576433  16.827434   0.104956  -0.546575  -0.076765 
Mo   2.828207  11.145880  16.872849   0.140916   0.406503   0.090019 
S    1.912961   9.495661  18.413431   0.050660   0.296358   0.258626 
S    4.723583  11.098303  18.440854   0.006621   0.207740  -0.447220 
S    4.624178  11.182712  15.239087   0.297701   0.127066  -0.034383 
S    1.886821   9.624621  15.256902   0.143427  -0.451150  -0.400531 
Mo   5.631131   9.548789  16.731013  -0.791042  -0.294718   0.001915 
Mo   8.343399  11.144476  16.750639   0.464866   0.256719  -0.328003 
S    7.482398   9.487408  18.246114   0.092734   0.044792   0.903470 
S   10.223240  11.156318  18.297182   0.305230  -0.086592   0.102176 
S   10.200637  11.163451  15.137424   0.352632   0.013444   0.186178 
S    7.469971   9.555544  15.098012  -0.131890   0.150869   0.221646 
Mo  11.225509   9.560584  16.724495  -1.150801   0.026903  -0.013869 
Mo  13.941398  11.108127  16.775387   0.078540  -0.237476  -0.326715 
S   12.966354   9.511675  18.352442   0.674256  -0.075539  -0.024919 
S   15.738899  11.132176  18.379067   0.410051  -0.155917   0.000570 
S   15.848578  11.096046  15.230175  -0.327412   0.526461  -0.233659 
S   13.048712   9.504220  15.105098  -0.070049   0.531042   0.235909 
Mo  16.733423   9.497865  16.805426  -0.671872   0.116499  -0.297437 
Mo  19.389915  11.165096  16.825534   1.251427  -0.714424  -0.135474 
S   18.482056   9.429846  18.419329   0.704016   0.579512  -0.291539 
S   21.322892  11.143454  18.445963  -0.320110   0.311547  -0.411775 
S   21.325717  11.240438  15.278295  -0.098906  -0.028831   0.103301 
S   18.572269   9.522091  15.163215  -0.212635   0.564258   0.180630 
Mo  22.221462   9.569324  16.814799   0.049748  -0.111343   0.675591 
Mo  25.055399  11.126224  16.848407  -0.075137   0.384926  -0.616930 
S   24.088178   9.565620  18.414400  -0.314774  -0.073128   0.198949 
S   26.969034  11.079257  18.419283  -0.576576   1.030644   0.360116 
S   26.933939  11.114845  15.294977   0.043834   0.617477  -0.255727 
S   24.040006   9.530304  15.230159   0.517186   0.260237   0.111174 
Mo  27.864143   9.545297  16.860828  -0.029315  -0.492710  -0.236141 
Mo  30.672358  11.194577  16.877866  -0.886106   0.368682  -0.170883 
S   29.738640   9.589857  18.413814  -0.166390  -0.050743   0.659969 
S   32.502069  11.202578  18.461483   0.008988   0.015770   0.433656 
S   32.466206  11.207838  15.281609   0.453998   0.417912   0.132156 
S   29.734246   9.562111  15.279697  -0.001080   0.246968  -0.026943 
Mo   0.113291  12.815115  16.914957  -1.056711  -0.485993  -0.743015 
Mo   2.852424  14.325800  16.858467   0.438322   0.782253  -0.980268 
S    1.970266  12.798840  18.472891  -0.246067  -0.575515   0.372427 
S    4.672066  14.343946  18.414376   0.496368   0.272527   0.555734 
S    4.722372  14.385802  15.218655  -0.281160   0.010154   0.409847 
S    1.888796  12.768224  15.283837   0.277078  -0.145346  -0.194928 
Mo   5.594182  12.787643  16.842576  -0.067878  -0.844695  -0.248375 
Mo   8.390609  14.337954  16.864272   0.480895  -0.124830   0.433414 
S    7.429273  12.706214  18.433338   0.350102  -0.040332  -0.116651 
S   10.355625  14.292924  18.375947  -0.818257   0.045678   0.504713 
S   10.194435  14.344606  15.218268   0.030538   0.351874  -0.386269 
S    7.407533  12.804366  15.229634   0.128043  -0.000694  -0.028867 
Mo  11.198813  12.776771  16.724942  -0.133751  -1.037873  -0.071714 
Mo  13.968158  14.308061  16.776271   0.105611   1.385906   0.422260 
S   13.017660  12.737003  18.328387   0.067149  -0.289499   0.430714 
S   15.794654  14.351288  18.465030  -0.162553   0.075484  -0.493545 
S   15.820824  14.398293  15.223234  -0.012434  -0.084487  -0.107034 
S   13.112170  12.712167  15.173325  -0.541262   0.121672  -0.379637 
Mo  16.692432  12.775855  16.803049   0.022647  -0.363430   0.415990 
Mo  19.448964  14.322293  16.874600   1.406443   0.495462  -0.066145 
S   18.512413  12.710404  18.411571  -0.267039   0.099117   0.524534 
S   21.330090  14.366687  18.521212   0.016625  -0.355001  -0.360322 
S   21.404029  14.410526  15.310500  -0.514018  -0.458961   0.073323 
S   18.516007  12.829772  15.213963   0.243521  -0.619224   0.029486 
Mo  22.347524  12.801693  16.885271  -1.487460  -0.511751  -0.669580 
Mo  25.069967  14.301675  16.871237   0.500567   1.016270   0.288778 
S   24.113752  12.729070  18.431864   0.859327  -0.308301   0.755655 
S   26.956213  14.345183  18.491325  -0.297971   0.537277  -0.265809 
S   26.918439  14.391148  15.329315   0.186615   0.277811  -0.690125 
S   24.200291  12.784563  15.186097  -0.472735  -0.484767   0.781553 
Mo  27.851877  12.812530  16.864700   0.416660  -1.304669   0.448214 
Mo  30.648584  14.402255  16.874340  -0.190437   0.293542   0.866946 
S   29.710103  12.802649  18.494730  -0.001360  -0.004881  -0.431312 
S   32.471545  14.457788  18.549674   0.086373  -0.356829  -0.565954 
S   32.440891  14.422100  15.296048   0.781524  -0.339945   0.047417 
S   29.711216  12.823415  15.297918   0.008499  -0.246397  -0.145876 
Mo   0.103734  15.943374  16.850617  -0.356673   0.216159   0.029754 
Mo   2.841624  17.531300  16.924003   0.146453   0.052494  -0.089605 
S    1.978917  15.887905  18.470346  -0.677245   0.348436   0.156955 
S    4.732339  17.512062  18.552265  -0.379146   0.020582  -0.730102 
S    4.619932  17.584914  15.247494   0.432764  -0.314446   0.664441 
S    1.928424  15.939938  15.253359   0.202931   0.028369   0.373274 
Mo   5.637205  15.970184  16.855486  -0.440991  -0.017614   0.349763 
Mo   8.384499  17.598566  16.887334  -0.416898  -0.415162   0.469944 
S    7.518558  15.966165  18.485179  -0.372735  -0.228640  -0.239171 
S   10.222967  17.533708  18.435913   0.658372   0.333694  -0.097528 
S   10.169610  17.564130  15.274060   0.335194  -0.155541  -0.380742 
S    7.501421  15.954842  15.335019  -0.177117   0.268975  -0.774962 
Mo  11.153489  15.911780  16.816976  -0.238264   1.042963  -0.168874 
Mo  13.884563  17.577229  16.828949   0.733728   0.605552  -1.039698 
S   13.027205  15.978151  18.365832  -0.072531  -0.749312   0.373680 
S   15.754546  17.627655  18.376871   0.154058  -0.432150   0.461204 
S   15.787733  17.617628  15.269067   0.044447  -0.617861  -0.048452 
S   12.968236  15.954428  15.218223   0.393677  -0.166246  -0.018619 
Mo  16.751205  15.954180  16.859796  -1.560290   0.286402   0.043081 
Mo  19.459715  17.581787  16.911557   0.389018  -0.575179  -0.879649 
S   18.563579  15.949033  18.439720  -0.037089  -0.053836   0.778042 
S   21.335718  17.549876  18.484944  -0.048618   0.085443   0.281298 
S   21.345634  17.493139  15.323062  -0.005175   0.359865   0.080569 
S   18.528281  15.891415  15.293241   0.772260   0.919586  -0.293543 
Mo  22.301315  15.933013  16.940742  -0.177869   0.617904  -0.213394 
Mo  25.059004  17.591351  16.941334   0.642434  -0.180661  -0.203479 
S   24.192457  15.901141  18.503677  -0.201236   0.279360  -0.024668 
S   26.995994  17.632685  18.467376  -0.586038  -0.334700   0.422167 
S   26.900436  17.673358  15.284257   0.095204  -0.435538   0.655995 
S   24.153262  15.962807  15.311585  -0.029716   0.079330   0.369511 
Mo  27.883478  16.020440  16.879268  -0.398205  -0.346229   0.065580 
Mo  30.602207  17.621233  16.857779   0.227904  -0.018238  -0.454994 
S   29.757538  16.035342  18.477523  -0.460512  -0.243113  -0.124706 
S   32.465489  17.584432  18.407009   0.043990   0.249709   0.726521 
S   32.486610  17.588524  15.269276   0.084562   0.482513   0.578818 
S   29.717776  15.964551  15.256550  -0.132215   0.352584   0.217510 
Mo   0.066712  19.223129  16.910830   0.193072  -1.264659  -0.899097 
Mo   2.868516  20.729568  16.842239  -0.190153   0.245388   0.272006 
S    1.923527  19.191137  18.521261   0.063629  -0.264183  -0.470156 
S    4.730560  20.781773  18.514072  -0.332439  -0.050562  -0.619465 
S    4.696803  20.749744  15.319674   0.196217  -0.423133  -0.750981 
S    1.916049  19.098803  15.306781  -0.038422   0.353703  -0.003777 
Mo   5.568046  19.123824  16.905260   0.629454   0.614654   0.497290 
Mo   8.413425  20.747160  16.784247  -0.490707   0.436428  -0.013930 
S    7.456142  19.216889  18.535269   0.195998  -0.094032  -1.081810 
S   10.235784  20.888471  18.357667   0.317537  -0.848690  -0.151415 
S   10.223322  20.727996  15.112266  -0.124971  -0.114067   0.488411 
S    7.389771  19.142583  15.305906   0.088985  -0.110718  -0.466942 
Mo  11.141664  19.171955  16.791569   0.745332   0.501554   0.416147 
Mo  13.916384  20.807887  16.752386   0.089153  -0.205871  -0.073964 
S   13.041202  19.210704  18.430403  -0.546143   0.115413  -0.632375 
S   15.730363  20.857974  18.409403   0.349050  -0.084472  -0.680997 
S   15.778249  20.761075  15.185166   0.330330   0.022028   0.018406 
S   13.042243  19.205304  15.141453  -0.576406  -0.550935   0.741487 
Mo  16.732430  19.196528  16.825711  -0.715540   0.585977   0.343644 
Mo  19.469528  20.771338  16.826488   0.540379   0.333297  -0.025601 
S   18.529699  19.209357  18.474322   0.088121  -0.040259  -0.066218 
S   21.298426  20.819723  18.465146   0.020341  -0.195929  -0.182234 
S   21.408928  20.813944  15.280821  -0.331816  -0.253990   0.363364 
S   18.548477  19.138925  15.257035   0.439611   0.152243  -0.100727 
Mo  22.247124  19.149386  16.894172   0.365275   0.766507   0.344608 
Mo  25.020614  20.880614  16.973391  -0.366669  -0.556033  -0.183939 
S   24.109731  19.182622  18.540763  -0.202806   0.149030  -0.313737 
S   26.844510  20.820365  18.516546   0.439954  -0.114614   0.731872 
S   26.854304  20.873995  15.334525   0.093627  -0.202483   0.308824 
S   24.153618  19.220269  15.394389  -0.174097   0.025577  -0.358111 
Mo  27.846847  19.251201  16.925060  -0.608228  -0.087689  -0.562136 
Mo  30.575386  20.816661  16.847480   0.950288   0.069791  -0.383021 
S   29.727756  19.216867  18.499644  -0.175733   0.000494  -0.253260 
S   32.455738  20.868429  18.472424  -0.253779  -0.036633   0.133968 
S   32.503216  20.753818  15.265314  -0.524014   0.453156   0.308123 
S   29.618846  19.236705  15.283686   0.327628  -0.221046  -0.144666 
Mo   0.064514  22.372496  16.828984   0.256025   0.179450  -0.671245 
Mo   2.817628  23.975469  16.772816   0.355117   0.205330   0.218679 
S    1.951217  22.328884  18.351023  -0.255489   0.587311   0.625297 
S    4.620285  23.988911  18.360208   0.805919   0.186024   0.079244 
S    4.737310  23.886930  15.200986  -0.346982   0.692701   0.187330 
S    1.932137  22.376781  15.204651  -0.143439  -0.575391   0.122426 
Mo   5.633750  22.344258  16.839250   0.559299   0.433981  -0.036108 
Mo   8.422693  24.012351  16.732756  -0.395760   0.387808  -0.216942 
S    7.576887  22.417773  18.328817  -0.576085  -0.113319   0.329256 
S   10.251838  24.041739  18.328415   0.182038   0.118348  -0.527225 
S   10.200095  24.065413  15.075573   0.282219  -0.231889   0.384935 
S    7.489544  22.347586  15.111803  -0.229573   0.033289   1.152559 
Mo  11.084968  22.408318  16.675535   0.682184   0.312392   0.264819 
Mo  13.899992  24.028594  16.675839   0.825044  -0.216830   0.549062 
S   12.979548  22.435791  18.237391  -0.358324   0.098918   0.570706 
S   15.868790  24.025030  18.256393  -1.029260   0.085167   0.461382 
S   15.801100  23.986363  15.149848   0.264265   0.047245  -0.232166 
S   12.932410  22.390968  15.114285   0.457602  -0.001089  -0.060750 
Mo  16.737373  22.392472  16.742545  -0.148093  -0.107390  -0.067505 
Mo  19.519793  24.032752  16.805097  -0.726891  -0.408270  -0.617625 
S   18.537817  22.416599  18.390089   0.114157  -0.022554  -0.287591 
S   21.233955  24.132084  18.450211   0.784826  -0.560693   0.134188 
S   21.383359  24.017091  15.247627   0.155728   0.068493   0.068263 
S   18.624088  22.404717  15.177781  -0.077782  -0.235070   0.267817 
Mo  22.261300  22.460425  16.906196  -0.828213  -0.239916   0.360536 
Mo  24.968286  24.088530  16.979582   0.852727  -0.098417  -0.003166 
S   24.037610  22.520832  18.553387   0.087944  -0.519218   0.206352 
S   26.862559  24.037764  18.549904   0.400095   0.196844  -0.299777 
S   26.823080  23.916142  15.402943   0.423166   1.125858  -0.035812 
S   24.105098  22.489991  15.392575   0.205176  -0.257494  -0.593177 
Mo  27.815524  22.394959  16.986573  -0.157286   0.425557  -0.666979 
Mo  30.618285  23.997622  16.846417   0.512221  -0.233522   1.001074 
S   29.728420  22.342830  18.473947  -0.122679   0.713730   0.216411 
S   32.541270  24.036379  18.467025  -0.571928  -0.199042  -0.270082 
S   32.470876  24.023687  15.255054   0.046976  -0.176469   0.122592 
S   29.587115  22.494263  15.244549   0.215335  -0.855767   0.638893 
