288
Lattice="33.336455 0.034894 0.030871 0.02685 25.652809 -0.000664 0.027094 9e-05 30.5823 " PBC="1 1 1" Properties="species:S:1:pos:R:3:force:R:3" Energy=" -5.285048"
Mo   0.068864  -0.006724  16.807364   0.002045  -0.469764   0.130620 
Mo   2.808137   1.545265  16.795042   0.334647  -0.120340   0.195594 
S    1.897742  -0.058783  18.457957   0.346476   0.065435  -0.820212 
S    4.700606   1.575312  18.363920  -0.277612  -0.789776   0.055196 
S    4.650730   1.509932  15.202734   0.283868  -0.018404  -0.074623 
S    1.922151  -0.072266  15.202212  -0.003900   0.020873   0.146335 
Mo   5.590180  -0.118022  16.790960   0.674365   1.095661   0.190025 
Mo   8.435836   1.535101  16.755075  -0.259538   0.966625  -0.178733 
S    7.527315   0.058363  18.354480  -0.680073  -1.232184   0.338482 
S   10.260328   1.534691  18.344348   0.028627  -0.265267   0.352708 
S   10.287368   1.561754  15.162586  -0.157301  -0.765905  -0.065285 
S    7.485920  -0.080067  15.225457  -0.333236   0.109061  -0.545728 
Mo  11.160465  -0.128630  16.784533   0.237658   0.476029  -0.330957 
Mo  13.969761   1.507273  16.833547  -0.826316  -0.262363  -1.081829 
S   12.992803  -0.140671  18.378355   0.130452   0.359382   0.209402 
S   15.785989   1.498636  18.379291   0.464046   0.405028   0.183625 
S   15.838475   1.461317  15.243950  -0.293451   0.441146  -0.419702 
S   13.031415  -0.127889  15.177026   0.010799   0.186424   0.536468 
Mo  16.776713  -0.105618  16.805353  -0.655611  -0.135390   0.444770 
Mo  19.483702   1.480614  16.877154  -0.059321   0.430348  -0.705473 
S   18.577381  -0.113890  18.458872   0.016991  -0.203061   0.048802 
S   21.307672   1.490453  18.444152   0.691792   0.116706  -0.236195 
S   21.302348   1.498776  15.226655   0.166192  -0.007280   0.177668 
S   18.607929  -0.128820  15.257040   0.208424   0.077270  -0.309270 
Mo  22.276528  -0.099238  16.817801  -0.046278   0.264043  -0.249734 
Mo  25.125576   1.507207  16.760523  -0.776409   0.700456   0.292640 
S   24.102574  -0.094417  18.381354   0.743369   0.294070  -0.181769 
S   27.027854   1.540007  18.328619  -0.587848  -0.097158   0.491394 
S   27.008368   1.549624  15.235762  -0.141539  -0.569286  -0.718665 
S   24.103177  -0.027714  15.153674   0.242941  -0.127443   0.244859 
Mo  27.937871  -0.097068  16.805554  -0.343341  -0.000807  -0.564055 
Mo  30.657483   1.590391  16.830719  -0.261875  -0.919500  -0.071079 
S   29.757532  -0.112955  18.487404  -0.364532   0.844528  -0.505852 
S   32.468659   1.629085  18.409350   0.168502  -0.070407   0.201687 
S   32.461903   1.573215  15.159134   0.089845  -0.069217   0.450673 
S   29.829899  -0.053229  15.237327  -0.378661  -0.153217   0.263893 
Mo   0.013540   3.137280  16.734670   0.894183   0.604933  -0.084062 
Mo   2.866228   4.729323  16.744198   0.720365   0.163799   0.790767 
S    1.898181   3.174045  18.356343  -0.313972  -0.089160  -0.233979 
S    4.724647   4.669080  18.467873  -0.406305   0.369500  -1.222386 
S    4.748236   4.789355  15.155306  -0.347176  -0.803733   0.211396 
S    1.912238   3.145845  15.161968  -0.152086  -0.227093   0.093267 
Mo   5.624773   3.113161  16.776583  -0.124261   0.642756  -0.295506 
Mo   8.362248   4.758434  16.781794   0.227277  -0.331437   0.317665 
S    7.461287   3.153710  18.360383   0.222403  -0.396226   0.032294 
S   10.221986   4.706573  18.412376  -0.001239   0.100583  -0.449961 
S   10.138231   4.700804  15.169594   0.924312   0.539786   0.284709 
S    7.488880   3.163473  15.203857  -0.258489  -0.363907  -0.476661 
Mo  11.136794   3.127813  16.769228   0.800998   0.427208  -0.242155 
Mo  13.991427   4.760229  16.695471   0.397234  -0.370303   0.572860 
S   13.010065   3.189507  18.328503   0.244970  -0.138494   0.127358 
S   15.781145   4.765752  18.367104   0.452703   0.321863  -0.545512 
S   15.911275   4.789267  15.151883  -0.396061  -0.025693  -0.124270 
S   13.065785   3.130905  15.187021  -0.405107  -0.470464  -0.070465 
Mo  16.721023   3.160302  16.769902  -0.495136  -0.714112   0.806966 
Mo  19.531508   4.741393  16.788580  -0.058540   0.007416   1.363069 
S   18.502652   3.104270  18.397579   0.490816   0.525448   0.076538 
S   21.432240   4.657112  18.457998  -0.314631   0.369024  -0.861123 
S   21.398004   4.744310  15.312601   0.332471  -0.016764  -0.798064 
S   18.558928   3.104315  15.278212   0.659761  -0.022719  -0.705577 
Mo  22.313879   3.057938  16.804369   0.267913   0.722091   0.526752 
Mo  25.124864   4.711049  16.774402  -0.004443   0.014711  -0.202745 
S   24.204529   3.100037  18.423800  -0.110638  -0.202918  -0.926457 
S   26.935827   4.752743  18.405657   0.142524  -0.267602  -0.240363 
S   26.968827   4.750385  15.153517  -0.162586   0.270639   0.269608 
S   24.156931   3.179822  15.115911  -0.001689  -0.701478   1.035503 
Mo  27.862468   3.167351  16.759578   0.974407   0.117267   0.752639 
Mo  30.606295   4.791227  16.787986   0.732971   0.215315   0.616203 
S   29.711229   3.149298  18.411625  -0.221348   0.406482  -0.267499 
S   32.524358   4.814757  18.361799  -0.375290   0.136730  -0.340211 
S   32.409217   4.810047  15.153697   0.630313  -0.018607   0.279304 
S   29.754820   3.174350  15.213403  -0.404618  -0.122585  -0.259983 
Mo   0.161926   6.358771  16.698482  -1.097415  -0.184915   0.633094 
Mo   2.827248   7.976993  16.770240   0.650017  -0.186890   0.082196 
S    1.955040   6.343213  18.341281  -0.071734  -0.204489  -0.043801 
S    4.679559   7.974506  18.388824  -0.284650  -0.297825  -0.021666 
S    4.747825   7.938545  15.247832  -0.716553   0.294736  -0.954946 
S    2.070971   6.355582  15.163540  -0.793696  -0.074418  -0.583806 
Mo   5.591528   6.333256  16.790508   0.714949  -0.018988   0.820902 
Mo   8.471328   7.885009  16.789388  -0.831989   0.832904  -0.052762 
S    7.436270   6.313594  18.369134   0.240649   0.360834   0.205185 
S   10.306585   7.845985  18.416392  -0.272426   0.825422   0.136784 
S   10.368779   7.979707  15.254801  -0.489042  -0.309824  -0.389737 
S    7.476445   6.350743  15.170230  -0.152086   0.100683   0.137282 
Mo  11.190627   6.317384  16.824843   0.365992  -0.604919  -0.699773 
Mo  13.997148   7.954645  16.747314   0.009985   0.227880   0.164304 
S   13.160130   6.316712  18.305452  -0.735805   0.221273   0.627282 
S   15.858466   7.957325  18.354968  -0.304314  -0.360750   0.196162 
S   15.882257   8.057411  15.170222  -0.272837  -0.814327  -0.194961 
S   13.012852   6.337811  15.189740   0.083999   0.309057  -0.585850 
Mo  16.805403   6.393287  16.749336  -0.194034  -0.304571   0.586312 
Mo  19.616045   7.954366  16.821980  -0.002514   0.023361   0.760269 
S   18.643006   6.357523  18.405631  -0.150802  -0.133770  -0.405923 
S   21.476940   7.976372  18.472223  -0.383065  -0.485680  -0.108708 
S   21.511589   8.033233  15.284903  -0.058018  -0.134983   0.203285 
S   18.681688   6.430823  15.185330   0.080765  -0.556249   0.010380 
Mo  22.386630   6.346158  16.850991  -0.016769   0.118952   0.118983 
Mo  25.189349   8.002161  16.826036  -0.966282  -0.459181   0.230828 
S   24.265025   6.271076  18.381215  -0.087236   0.694756   0.115977 
S   26.989528   7.939131  18.489916  -0.142853  -0.259650  -0.231814 
S   27.037425   8.074673  15.260750  -0.209494  -0.395774   0.122409 
S   24.263067   6.387581  15.201277  -0.348566  -0.023020   0.435975 
Mo  27.871474   6.343218  16.815000  -0.295116   0.868078   0.177176 
Mo  30.663061   7.985550  16.810362   0.286453   0.787881   0.541208 
S   29.742852   6.410855  18.378266  -0.201860  -0.493505   0.416974 
S   32.557630   8.024038  18.385601  -0.264363  -0.689518  -0.242635 
S   32.511843   8.034054  15.221544  -0.107447  -0.173730  -0.462834 
S   29.685248   6.432730  15.240130   0.278372  -0.312994  -0.600788 
Mo   0.075977   9.587163  16.774850   0.149751   0.154096   0.280285 
Mo   2.825982  11.136545  16.871508   0.090945   0.165081  -0.639549 
S    1.879901   9.466207  18.426207   0.150188   0.641293  -0.247921 
S    4.696351  11.173094  18.413602  -0.101868  -0.359044   0.433667 
S    4.740420  11.236666  15.296138  -0.865675  -0.147989  -0.557180 
S    1.894674   9.590727  15.144413   0.412792   0.109724   0.612491 
Mo   5.565774   9.557239  16.789294   1.794756   0.333385   0.303766 
Mo   8.426404  11.147618  16.874339  -0.309309  -0.088856   0.531461 
S    7.430147   9.462971  18.360317   0.429461   0.120265   0.143491 
S   10.266071  11.137068  18.511377   0.080068  -0.014917  -0.456874 
S   10.287404  11.219529  15.346887  -0.046481  -0.311880  -0.858490 
S    7.548807   9.590659  15.204676  -0.378247  -0.448571   0.529912 
Mo  11.198903   9.562637  16.850300   0.378316  -0.129227   0.588214 
Mo  14.068311  11.086746  16.873936  -0.869533   0.970580  -0.000356 
S   13.051315   9.521397  18.423908   0.295923  -0.316850  -0.101115 
S   15.836738  11.162279  18.509553   0.484678  -0.529962  -0.557595 
S   15.931116  11.139085  15.244060  -0.676328   0.134056  -0.010724 
S   13.042048   9.602103  15.200565   0.086006  -0.159444   0.284556 
Mo  16.783701   9.537074  16.815440   0.451053   1.067934   0.578634 
Mo  19.575787  11.165954  16.865475  -0.611100   0.383605  -0.230700 
S   18.594112   9.531789  18.425650   0.572020   0.029933  -0.012309 
S   21.380528  11.194161  18.501156  -0.029098   0.067163   0.311016 
S   21.450406  11.305355  15.325008  -0.002728  -1.005145  -0.271224 
S   18.694061   9.554223  15.267091  -0.093445   0.269769  -0.239942 
Mo  22.352558   9.634260  16.949199  -0.144533  -0.494901  -1.311632 
Mo  25.111284  11.225703  16.988914   0.194724  -0.875720  -0.152608 
S   24.175870   9.495621  18.479406   0.540969   0.459797   0.403654 
S   27.013581  11.138998  18.586758  -0.543260   0.339552   0.039265 
S   26.950226  11.203093  15.395082   0.104553   0.194416   0.228062 
S   24.154334   9.655681  15.298951   0.522203   0.006614   0.554952 
Mo  27.909964   9.584067  16.959773   0.287089   0.222565  -0.637183 
Mo  30.634060  11.269963  16.893982   0.575550  -0.693324   0.136270 
S   29.798213   9.593594  18.491510   0.082473  -0.027404  -0.136317 
S   32.529110  11.195998  18.468493  -0.266932   0.173884  -0.221258 
S   32.457723  11.240406  15.264047   0.115203   0.490701   0.166356 
S   29.738758   9.659096  15.300858  -0.292208  -0.126983   0.037135 
Mo   0.088424  12.804202  16.858806   0.266391   0.155769  -0.053560 
Mo   2.914183  14.390134  16.823962  -0.539388  -0.642074   1.300554 
S    1.982694  12.735518  18.511814  -0.389597   0.414949  -1.009250 
S    4.770765  14.356238  18.514199  -0.680454   0.743175  -0.400523 
S    4.759997  14.407999  15.239644  -0.283531  -0.222571  -0.072468 
S    1.963128  12.786164  15.268007  -0.243244   0.003854   0.139493 
Mo   5.595465  12.824098  16.888488   1.087448  -0.690569  -0.343166 
Mo   8.423109  14.361050  16.938506  -0.288275   0.127010  -1.284330 
S    7.470715  12.775718  18.455850   0.011291  -0.414776   0.522847 
S   10.251275  14.347588  18.505271   0.506628   0.133582  -0.128916 
S   10.218384  14.314862  15.263109   0.505594   0.209706   0.695066 
S    7.487482  12.737991  15.326805  -0.027327   0.443635  -0.145030 
Mo  11.237110  12.755712  16.895958   0.060217   0.326915   0.406330 
Mo  14.060191  14.357754  16.920800  -1.307563  -0.171589  -0.308290 
S   13.094788  12.748355  18.510175   0.216423  -0.357546  -0.565924 
S   15.855525  14.384262  18.498006   0.275188  -0.207931   0.059414 
S   15.865185  14.393158  15.272864  -0.295438  -0.213937  -0.004199 
S   13.186591  12.703839  15.314753  -0.566190   0.368136   0.178376 
Mo  16.737443  12.751947  16.856348   0.703184   0.344338   0.184247 
Mo  19.602185  14.343329  16.820033  -1.335169   0.356981   0.749988 
S   18.602192  12.776192  18.415691   0.169294  -0.094512   0.066218 
S   21.323863  14.387010  18.541172   0.516192  -0.254313  -0.318717 
S   21.492819  14.358893  15.344687  -0.088688   0.325911  -0.702984 
S   18.586192  12.793473  15.202130   0.412142  -0.386657   0.681411 
Mo  22.357953  12.800622  16.930093   0.448088   0.425713   0.708077 
Mo  25.105571  14.421296  17.009012  -0.562222  -0.230318  -0.759414 
S   24.150479  12.818924  18.579711   0.232896  -0.117011   0.031513 
S   26.925109  14.408043  18.612383   0.225492   0.395706  -0.013200 
S   26.869716  14.449156  15.362079   0.713804  -0.419922   0.455153 
S   24.311097  12.828891  15.351307  -0.773264  -0.014911   0.347392 
Mo  27.842180  12.826742  17.029300   0.262372   0.191655  -1.692041 
Mo  30.657397  14.456435  16.908830  -0.818985  -0.138313  -0.708289 
S   29.740046  12.880130  18.475928   0.131058  -0.357296   0.940150 
S   32.482303  14.450969  18.470056   0.407788  -0.175141   0.432027 
S   32.466225  14.517240  15.319909   0.300488  -0.533022  -0.283431 
S   29.667513  12.843231  15.330720  -0.170550   0.344196   0.172444 
Mo   0.059684  16.046055  16.872084   0.462227  -0.580707   0.468704 
Mo   2.849967  17.574719  16.921119   0.019987  -0.127069  -0.494319 
S    1.950190  15.933323  18.466709  -0.207903   0.118005  -0.005684 
S    4.744403  17.557671  18.423505  -0.326702   0.054204   0.818964 
S    4.671684  17.558655  15.280166   0.050637   0.230064  -0.059354 
S    1.876636  15.961743  15.288174   0.612195   0.416025  -0.090030 
Mo   5.642568  15.979152  16.845695   0.261358  -0.465216   0.220348 
Mo   8.418972  17.564022  16.879022  -0.299897   0.228366  -0.739915 
S    7.485643  16.024428  18.445374  -0.139790  -0.500543   0.581925 
S   10.172717  17.517473  18.479645   1.096229   0.661624  -0.040632 
S   10.249121  17.456513  15.255763   0.273592   1.184553   0.276055 
S    7.514977  15.954573  15.268442  -0.017835  -0.232469   0.285431 
Mo  11.161185  15.964237  16.870979   0.206741  -1.259234   0.572257 
Mo  13.979851  17.521057  16.867865  -0.207038   0.049487   0.554163 
S   13.030419  15.962181  18.491584   0.055644  -0.222780  -0.141786 
S   15.844574  17.555414  18.453886  -0.405479  -0.102255   0.439226 
S   15.790567  17.554109  15.245222   0.381638  -0.073872   0.326081 
S   13.026356  15.895905  15.325311   0.277562   0.147509  -0.296043 
Mo  16.751258  15.969829  16.874808   0.874221  -0.306960  -0.294715 
Mo  19.540996  17.505380  16.871334  -0.073891   0.386756   0.913013 
S   18.632966  15.953437  18.466875  -0.193117  -0.569115  -0.233759 
S   21.393719  17.555825  18.530902  -0.423055   0.408901  -0.328696 
S   21.333151  17.522105  15.284040   0.635709  -0.137480   0.073374 
S   18.644972  15.935774  15.250120  -0.369202  -0.047581   0.174153 
Mo  22.303873  15.980261  16.960109  -0.093511  -0.203328  -0.810626 
Mo  25.098051  17.580697  16.934493  -0.108611   0.538395  -0.378741 
S   24.120911  16.007804  18.506318   0.394475   0.264390   0.938784 
S   26.968971  17.624997  18.516847  -0.457191   0.479443   0.400143 
S   26.931759  17.603835  15.290381   0.050465   0.186668   0.587256 
S   24.139613  15.976567  15.330892   0.313118  -0.116264   0.510552 
Mo  27.814359  16.049567  16.960463   0.576640  -0.879468  -0.395549 
Mo  30.663179  17.643223  16.928497  -0.109978  -0.147277   0.234283 
S   29.731129  16.021055  18.482481  -0.197210   0.183557   0.541636 
S   32.504220  17.623813  18.541607  -0.127073   0.200362   0.172604 
S   32.480263  17.696838  15.328883   0.212104  -0.152902   0.026192 
S   29.642445  16.067444  15.357299   0.381184  -0.088390  -0.228814 
Mo   0.078147  19.216519  16.961970   0.292082  -0.164611   0.342831 
Mo   2.907409  20.801956  16.842937  -0.329062  -0.378433  -0.080644 
S    1.989389  19.242181  18.500152  -0.093143  -0.197858  -0.008089 
S    4.783742  20.789690  18.454193  -0.232966   0.120839  -0.162804 
S    4.751515  20.761734  15.266004   0.094444  -0.125757  -0.082323 
S    1.897445  19.150334  15.354057   0.271556   0.286607  -0.464930 
Mo   5.656167  19.144039  16.872427  -0.076232   0.420922  -0.632369 
Mo   8.415352  20.722754  16.821898   0.155101   0.534083   0.451831 
S    7.456031  19.153441  18.488083   0.489388   0.217370  -0.155871 
S   10.239237  20.769595  18.432310   0.163682  -0.071877   0.141925 
S   10.241941  20.706728  15.233026   0.285916  -0.021209  -0.124084 
S    7.520475  19.150378  15.276325  -0.493097  -0.347095  -0.400354 
Mo  11.225027  19.187251  16.871768  -1.306680  -1.784364  -0.293624 
Mo  13.951121  20.678982  16.839225   0.234714   1.401332   0.192657 
S   13.028138  19.143007  18.458005   0.306444  -0.164006   0.391263 
S   15.803822  20.726464  18.437161  -0.077546   0.422511   0.262055 
S   15.820296  20.679336  15.296171  -0.006818   0.476032  -0.670993 
S   13.081420  19.090974  15.306434  -0.495835  -0.025839  -0.869267 
Mo  16.728726  19.143734  16.889883   0.587782  -0.722571  -0.380404 
Mo  19.521199  20.718797  16.883140  -0.443531  -0.035554  -0.178832 
S   18.570636  19.097406  18.514901   0.332409   0.249886  -0.560201 
S   21.363112  20.727220  18.465770  -0.043119  -0.049702   0.185650 
S   21.318722  20.688747  15.209986   0.053140   0.066251   0.338963 
S   18.593068  19.044482  15.304946  -0.091618   0.735038  -0.085961 
Mo  22.254166  19.144146  16.854963   0.810835  -0.069856   0.403485 
Mo  25.080190  20.793154  16.794737   0.707043  -0.403706  -0.151351 
S   24.186752  19.249863  18.485210  -0.473701  -0.161980  -0.487976 
S   26.911735  20.834475  18.378827   0.100597  -0.081866   0.663566 
S   27.047042  20.764688  15.213700  -0.631406  -0.242306   0.482931 
S   24.158734  19.115447  15.287624  -0.188891   0.167035   0.052275 
Mo  27.914816  19.200826  16.903777  -0.258445  -0.086018   0.080296 
Mo  30.667347  20.840852  16.909964  -0.334144  -0.112452   0.348087 
S   29.781862  19.162336  18.597574  -0.436108   0.906825  -0.936422 
S   32.474332  20.903946  18.596017   0.168756  -0.144826  -0.762707 
S   32.542340  20.763396  15.382407  -0.330956   0.784301  -0.492761 
S   29.756337  19.227837  15.356130   0.025107  -0.030761  -0.491273 
Mo   0.076655  22.435206  16.884567   0.595902  -0.909738  -0.130361 
Mo   2.887889  23.962641  16.792096  -0.751227   0.376426   0.253558 
S    1.977113  22.346750  18.403600  -0.149504   0.787487   0.340176 
S    4.667377  23.991736  18.396299   0.709299  -0.296749   0.191002 
S    4.746044  23.922295  15.197050  -0.174165   0.103686  -0.029587 
S    1.900154  22.379357  15.216341   0.190776  -0.177479   0.335473 
Mo   5.713694  22.382989  16.830072  -1.554905   0.023122  -0.454439 
Mo   8.463515  24.009137  16.792831  -0.599829  -0.438308  -0.113593 
S    7.517720  22.419588  18.317131   0.440769  -0.192245   1.442210 
S   10.246641  23.899562  18.396607   0.384187   0.643153   0.118306 
S   10.256944  23.938870  15.185258   0.309759  -0.000834  -0.129843 
S    7.529335  22.362736  15.219969   0.071698   0.036404  -0.164610 
Mo  11.164877  22.323512  16.799326  -0.117001   0.091339  -0.314484 
Mo  13.945139  23.934564  16.811416   0.345987  -0.450143  -0.897629 
S   12.993456  22.334319  18.394797   0.336199  -0.065878  -0.081051 
S   15.826636  23.987913  18.383812  -0.173131  -0.507669   0.056549 
S   15.848965  23.939988  15.222867  -0.277267  -0.071781   0.022017 
S   12.982197  22.257370  15.154530   0.589822   0.318223   0.904434 
Mo  16.747497  22.327212  16.817048  -0.361607   0.198891   0.472090 
Mo  19.550353  23.935702  16.845872  -0.679836   0.432143   0.193082 
S   18.528837  22.351256  18.454212   0.569006  -0.064495  -0.123904 
S   21.344694  23.964980  18.385095   0.863271  -0.640431   0.505227 
S   21.417495  23.951835  15.249294  -0.252029  -0.554645  -0.036923 
S   18.632275  22.390367  15.290871  -0.171523  -0.828399  -0.492294 
Mo  22.276638  22.244516  16.830576   0.508241   1.851412  -0.651789 
Mo  25.119486  24.038022  16.735143  -0.915757  -1.152304  -0.462822 
S   24.184273  22.443748  18.344825  -0.153829  -0.297614   0.108090 
S   26.895331  24.022840  18.367076   0.408582  -0.043942   0.276392 
S   26.998030  23.887869  15.163893  -0.118477   1.136642   0.204656 
S   24.160329  22.306237  15.148443  -0.249405   0.427679   0.657356 
Mo  27.861902  22.407587  16.829506   0.633201  -0.044167  -0.454570 
Mo  30.688140  23.988570  16.893325   0.132446   1.009275  -1.035328 
S   29.690197  22.451254  18.426199  -0.095945  -0.421001   0.549686 
S   32.491335  24.095780  18.471757   0.524188   0.012228   0.296051 
S   32.548795  24.046535  15.283510  -0.308665  -0.268142  -0.047060 
S   29.756753  22.505116  15.221465   0.024493  -1.107152   0.604537 
