288
Lattice="33.332323 0.03511 0.030849 0.027016 25.651725 -0.000664 0.027075 9e-05 30.400112 " PBC="1 1 1" Properties="species:S:1:pos:R:3:force:R:3" Energy=" -5.285704"
Mo   0.102823  -0.063257  16.824712   0.203750   0.273163  -0.147810 
Mo   2.842826   1.572006  16.752636   0.256539   0.060542   0.965209 
S    1.966629  -0.036511  18.361910  -0.103057   0.107591   0.533201 
S    4.685179   1.599847  18.359111   0.038442  -0.505144   0.361839 
S    4.696746   1.570128  15.222347   0.282264   0.000964  -0.672889 
S    1.924678  -0.011527  15.200232   0.001325  -0.674206  -0.088506 
Mo   5.631704  -0.032643  16.777437   0.264468  -0.103511   0.974790 
Mo   8.387805   1.611290  16.861590  -0.124172  -0.877916   0.012558 
S    7.487335  -0.077006  18.436970  -0.012787   0.164633  -0.694694 
S   10.231705   1.608388  18.404068   0.655038  -0.506205   0.091031 
S   10.162908   1.565951  15.210806   0.764491   0.203270   0.277995 
S    7.522366   0.000493  15.237921  -0.304254   0.074929  -0.153186 
Mo  11.192350  -0.027551  16.785610  -0.192964   0.151517  -0.353644 
Mo  13.995414   1.544503  16.785598  -0.078958   0.299704  -0.527509 
S   13.096670  -0.094149  18.324061  -0.323721   0.137077   0.220358 
S   15.916864   1.507452  18.368207  -0.534431   0.308829  -0.189422 
S   15.806359   1.585014  15.173536   0.240591  -0.518284  -0.174300 
S   13.016463  -0.006343  15.124318   0.020265   0.369431   0.241902 
Mo  16.790324  -0.050088  16.726754   0.014769  -0.181420   0.142728 
Mo  19.509844   1.550653  16.789735   0.027006  -0.297559   0.182333 
S   18.638278  -0.158594  18.366668  -0.175586   0.467148  -0.240454 
S   21.280808   1.526532  18.382386   0.956961   0.034430   0.125722 
S   21.361273   1.473107  15.207839   0.142458   0.966415   0.158194 
S   18.699368  -0.021792  15.199919  -0.418795  -0.404217  -0.411851 
Mo  22.344600  -0.077271  16.772598  -0.008447   0.366795   0.864596 
Mo  25.124637   1.601144  16.755505  -0.246906  -0.110961  -0.034879 
S   24.218521  -0.009904  18.370309  -0.342934   0.370576   0.051793 
S   26.903578   1.633959  18.425536   0.592326  -0.486111  -0.814536 
S   27.065375   1.575153  15.104543  -0.824246   0.311763   0.830517 
S   24.183039  -0.033378  15.176687   0.112319   0.332975   0.035572 
Mo  27.938275   0.018684  16.768279  -0.127407   0.589083   0.416718 
Mo  30.665859   1.547128  16.770734   0.741371   1.765214   0.183633 
S   29.800391   0.066954  18.382786  -0.805433  -0.315677   0.591413 
S   32.592635   1.612172  18.419168  -0.788061   0.074948  -0.079722 
S   32.551360   1.589290  15.263935   0.163936   0.256685  -0.208404 
S   29.835849   0.043441  15.106812  -0.853362  -0.368199   0.247122 
Mo   0.104775   3.250357  16.815855   0.108693  -1.432918  -0.494130 
Mo   2.801193   4.779401  16.753623   1.022718   0.048973   0.219280 
S    1.969214   3.168495  18.397514  -0.249569   0.155903  -0.173645 
S    4.678615   4.828818  18.308813  -0.225431  -0.608169   0.877998 
S    4.687363   4.796988  15.234610   0.238764  -0.179218  -0.527062 
S    1.940549   3.145071  15.191290  -0.391854   0.319963  -0.385284 
Mo   5.621202   3.165174  16.806804   0.470685   0.433188  -0.255378 
Mo   8.368256   4.741253  16.870163   1.137547   0.149478  -0.522690 
S    7.451139   3.172512  18.476371  -0.322769  -0.102413  -0.169741 
S   10.254782   4.763511  18.402955   0.256459   0.030932   0.332489 
S   10.305325   4.707527  15.228955  -0.891424   0.540814  -0.035785 
S    7.543893   3.196463  15.242861  -0.837931  -0.266321  -0.181966 
Mo  11.197073   3.175220  16.798056  -0.224646  -0.687009   0.334139 
Mo  13.992311   4.804142  16.770586  -0.785223  -0.107017  -0.102304 
S   13.099941   3.176479  18.327039  -0.227695  -0.007266   0.632617 
S   15.819713   4.809021  18.334993   0.391768  -0.505316   0.167682 
S   15.766435   4.683949  15.165638   0.607083   0.640806  -0.232992 
S   13.003923   3.208242  15.197978   0.512123  -0.403707   0.057425 
Mo  16.759078   3.138577  16.745168  -0.111319   0.401831   0.738361 
Mo  19.572348   4.804427  16.795144  -1.610689  -0.336448  -0.186541 
S   18.563513   3.124022  18.401345   0.351936   0.513666  -0.457960 
S   21.308249   4.835994  18.450881   0.441815  -0.478359  -0.092889 
S   21.404331   4.845405  15.210356  -0.162231  -0.421253   0.142669 
S   18.615595   3.149616  15.163291   0.246854   0.301561   0.416559 
Mo  22.233319   3.196077  16.834631   0.344725  -0.165071   0.189953 
Mo  25.081132   4.801438  16.808871  -1.324523   0.402209  -0.042298 
S   24.167935   3.212786  18.389884  -0.451618  -0.526339  -0.104095 
S   26.814745   4.769504  18.387444   1.334836   0.126096   0.530117 
S   26.885372   4.790102  15.204567   0.346685   0.076978  -0.036918 
S   24.064023   3.260170  15.275362   0.446507  -0.563742  -0.770438 
Mo  27.851667   3.196478  16.795315  -0.049993  -0.001249  -0.407429 
Mo  30.687407   4.794086  16.725533  -0.508656   0.424577   1.140116 
S   29.729265   3.174813  18.327417   0.088077   0.238822   0.157461 
S   32.443739   4.824297  18.418990   0.135673   0.000835   0.120232 
S   32.571144   4.831061  15.162785  -0.330469  -0.070156   0.268817 
S   29.727397   3.201911  15.182960  -0.039895  -0.234023   0.029907 
Mo   0.095949   6.346164  16.811795   0.243653   0.703037  -0.470770 
Mo   2.842441   7.972712  16.781694   0.028635   0.290402   0.628130 
S    1.956209   6.330399  18.388419  -0.290457   0.427631   0.118291 
S    4.718153   8.027316  18.424587  -0.284050  -0.239061  -0.455552 
S    4.657071   7.988456  15.183180   0.438429  -0.097133   0.299608 
S    1.961413   6.431070  15.152699  -0.517129  -0.430754   0.234572 
Mo   5.644303   6.384598  16.812520  -0.099055   0.521092  -0.719207 
Mo   8.363995   7.887553  16.798519   0.850626   0.721039  -0.203315 
S    7.451286   6.307635  18.453343   0.060677   0.680047  -0.155336 
S   10.289272   8.035744  18.345399  -0.250320  -0.619957   0.064770 
S   10.287494   7.914422  15.175479  -0.516738  -0.279269   0.361226 
S    7.520348   6.261778  15.195323  -0.506266   0.458344   0.247972 
Mo  11.187621   6.333205  16.811043   0.414975   0.677238  -0.101346 
Mo  13.971654   7.973982  16.717785   0.396180   0.364455   0.000881 
S   13.108151   6.449285  18.389265  -0.480844  -0.521839  -0.321598 
S   15.863067   8.015253  18.313460  -0.317161   0.029616  -0.225127 
S   15.838458   8.006451  15.161454   0.062400   0.002485  -0.162549 
S   12.979705   6.341332  15.125618   0.350200   0.165624   0.643284 
Mo  16.753505   6.359178  16.728072  -0.589423   0.216923   0.163764 
Mo  19.466702   8.026435  16.749755   0.452080  -0.135498   0.276379 
S   18.560786   6.428449  18.349275   0.210246  -0.336331  -0.013134 
S   21.318210   8.023346  18.390057  -0.409952  -0.167521   0.588384 
S   21.363983   7.966265  15.199841  -0.114706   0.180121   0.114571 
S   18.545487   6.391404  15.169600   0.808867  -0.288580  -0.136223 
Mo  22.251208   6.424494  16.862688   0.485967  -0.670024  -0.274038 
Mo  25.104995   7.990225  16.884729   0.488048  -0.060017   0.007908 
S   24.116048   6.363767  18.459284   0.263417   0.231323  -0.259226 
S   26.998069   8.007362  18.414811  -0.171885   0.138173  -0.045815 
S   27.007250   7.919966  15.171510  -0.905855   0.480336   0.584593 
S   24.141298   6.470842  15.311032  -0.066109  -0.406865  -0.557577 
Mo  27.828309   6.377751  16.826845   0.632870  -0.314420   0.033755 
Mo  30.645196   8.060712  16.745721   0.048842  -0.385179   0.995996 
S   29.725038   6.448377  18.391072   0.148192  -0.357661  -0.663766 
S   32.501240   8.004426  18.422152  -0.498928   0.188521  -0.222333 
S   32.580961   8.022889  15.250263  -0.570332   0.018957  -0.214560 
S   29.690440   6.397739  15.230111   0.111605   0.124712  -0.368454 
Mo   0.060579   9.609171  16.829298  -0.109952  -0.234552   0.219391 
Mo   2.829512  11.170605  16.687387   0.746191  -0.058046   0.888041 
S    1.916423   9.578645  18.390403   0.259422   0.338174  -0.181823 
S    4.671234  11.254041  18.310749   0.105539  -0.068617  -0.110799 
S    4.737988  11.193096  15.098319  -0.535787  -0.657523   0.072584 
S    1.842479   9.579102  15.210971   0.402617  -0.388929  -0.554223 
Mo   5.587862   9.595048  16.789491  -0.061822  -0.051308  -0.327745 
Mo   8.408030  11.113193  16.619914   0.886137   0.204556   1.024593 
S    7.502148   9.624968  18.310509  -0.229377  -0.462189   0.182195 
S   10.289019  11.098632  18.268530  -0.271282   0.814439  -0.331166 
S   10.344416  11.064525  15.097719  -0.452751   0.609838  -0.233235 
S    7.371153   9.452592  15.194611   0.611705  -0.085061  -0.558344 
Mo  11.271191   9.539202  16.710912  -0.760697  -0.085249   0.174280 
Mo  13.908315  11.214440  16.708189   1.542844  -0.291444   0.052134 
S   13.095938   9.574730  18.328407  -0.120596   0.223700  -0.080486 
S   15.858449  11.321661  18.296355  -0.796872  -0.831866   0.233228 
S   15.832801  11.271007  15.202531  -0.327860  -0.319862  -0.762756 
S   13.066701   9.557407  15.100704   0.201843   0.077794  -0.112675 
Mo  16.778548   9.645452  16.735207  -0.458788  -0.329499   0.525709 
Mo  19.482917  11.144988  16.805024   0.954672   1.120742  -0.549743 
S   18.585442   9.611441  18.408425  -0.341903  -0.295174  -0.162931 
S   21.365011  11.155808  18.371524   0.113084   0.275239   0.244542 
S   21.412170  11.153361  15.236337  -0.147266   0.074379   0.302574 
S   18.596868   9.640386  15.140121   0.018402  -0.340131  -0.150871 
Mo  22.301756   9.521075  16.838630   0.632318   1.022526  -0.339869 
Mo  25.147619  11.139457  16.769294  -1.163235   0.057940   1.250007 
S   24.186787   9.598881  18.491608  -0.167771  -0.097045  -0.806757 
S   26.959609  11.176067  18.389976  -0.001454  -0.022910  -0.201483 
S   26.893672  11.252112  15.105000   0.602654  -0.627457   0.427310 
S   24.172874   9.486802  15.263352  -0.070789   0.367148  -0.287384 
Mo  27.873715   9.604546  16.750820  -0.630390   0.168867  -0.287932 
Mo  30.571212  11.258446  16.758187   0.913221  -0.140726  -0.525861 
S   29.676481   9.693685  18.341160   0.415166  -0.635631   0.197926 
S   32.415832  11.333156  18.376177   0.193608  -0.490620   0.144104 
S   32.482295  11.203201  15.246062  -0.129929   0.029875  -0.558261 
S   29.695535   9.639680  15.155871   0.197869  -0.117467  -0.234632 
Mo   0.089923  12.805255  16.724418   0.079751   0.332729  -0.390392 
Mo   2.918412  14.351110  16.630631  -0.679064   0.901415   0.582502 
S    1.956779  12.792722  18.257868   0.023899   0.226069   0.217590 
S    4.720812  14.367439  18.265122   0.209393  -0.028154  -0.178160 
S    4.784667  14.342430  15.066128  -0.139885   0.572957  -0.080143 
S    1.970425  12.747349  15.093367  -0.639017   0.110685  -0.340999 
Mo   5.665515  12.761721  16.651047   0.134981   0.358768   0.646087 
Mo   8.405460  14.434535  16.660887  -0.116828  -0.967318   0.058570 
S    7.510395  12.761865  18.233966   0.196310   0.048810  -0.240049 
S   10.246391  14.435066  18.259791   0.316331  -0.277887  -0.112738 
S   10.245206  14.447605  15.126944   0.359893  -0.655337  -0.744914 
S    7.540730  12.710078  15.050180  -0.218908   0.541800   0.017527 
Mo  11.198481  12.783221  16.675228  -0.865720   0.171526   0.285195 
Mo  14.014710  14.439358  16.632946  -0.096961  -0.483756  -0.180407 
S   13.043199  12.842041  18.229859  -0.125622   0.239362   0.525433 
S   15.831544  14.501888  18.315232  -0.043397  -0.362359  -0.481261 
S   15.881110  14.447308  15.021316  -0.064651  -0.483639   0.637471 
S   13.001289  12.788703  15.088870   0.474867   0.318742  -0.324179 
Mo  16.774849  12.851561  16.727481  -0.529453   1.080075   0.003677 
Mo  19.590668  14.354807  16.743001  -0.257578   0.654965   0.065849 
S   18.606121  12.856014  18.331569  -0.036249  -0.505597   0.399452 
S   21.374671  14.439400  18.416877   0.367916  -0.505485  -0.482737 
S   21.440451  14.356343  15.180324   0.262096  -0.031913   0.174647 
S   18.582078  12.752233  15.170327   0.744605   0.043886  -0.196501 
Mo  22.387812  12.792842  16.822821  -1.333569  -0.513758   0.233883 
Mo  25.048148  14.342158  16.869541   0.443484   0.289137  -0.691847 
S   24.178944  12.702980  18.479765   0.176309   0.027426  -0.687823 
S   26.905703  14.425800  18.429802   0.227858  -0.520875  -0.222132 
S   26.877019  14.467829  15.234506  -0.225968  -0.932503  -0.320810 
S   24.179503  12.680747  15.212317   0.061345   0.778828   0.070544 
Mo  27.799678  12.792339  16.771524   0.777703   0.838775  -0.203573 
Mo  30.629273  14.439115  16.715957   0.496522  -0.222266   0.474168 
S   29.697174  12.829310  18.311503  -0.253394   0.569548   0.313069 
S   32.525017  14.467541  18.332844  -0.383102  -0.323240  -0.063095 
S   32.526375  14.459898  15.137464  -0.295454  -0.354943   0.008835 
S   29.700465  12.854290  15.119593  -0.473384  -0.144861   0.269455 
Mo   0.140274  15.988335  16.707072  -0.530895   0.238739  -1.128163 
Mo   2.871587  17.610860  16.726067   0.393841  -0.270669  -0.463948 
S    1.914974  15.978999  18.274405   1.031451  -0.357648   0.009723 
S    4.745569  17.578500  18.318187  -0.089224   0.284833  -0.260188 
S    4.742489  17.634738  15.100759  -0.330758  -0.276712   0.270006 
S    1.957412  15.997172  15.044742   0.263983   0.165629   0.715259 
Mo   5.660896  15.999817  16.705031  -0.343892  -0.161029  -0.493135 
Mo   8.435858  17.606347  16.644445   0.116841   0.749748  -0.439914 
S    7.509592  16.007706  18.272361   0.108295   0.255422   0.030389 
S   10.303992  17.709873  18.176810   0.208161  -0.831204   0.436278 
S   10.303826  17.571100  15.018525  -0.085199   0.355102   0.358399 
S    7.458628  16.039907  15.074820   0.214116  -0.171127  -0.211047 
Mo  11.241279  15.997497  16.651126  -0.043340   0.779461   0.114422 
Mo  14.015893  17.612907  16.618277   0.379073   0.115550  -0.052094 
S   13.102579  16.002280  18.231310  -0.235274   0.351801   0.045166 
S   15.879883  17.610172  18.212994  -0.423916   0.135483   0.430761 
S   15.889312  17.608029  15.043984  -0.020836  -0.186278  -0.025822 
S   13.103619  16.052173  15.004861  -0.336083  -0.420683   0.394373 
Mo  16.782002  16.003935  16.664718   0.614866   0.198895  -0.421453 
Mo  19.603543  17.614967  16.615553  -0.522789   0.357508  -0.025582 
S   18.646375  16.088494  18.247934  -0.064182  -0.530729   0.040620 
S   21.370723  17.594639  18.248488   0.148990   0.603798   0.645185 
S   21.505251  17.527047  15.088022  -0.037873   0.258810  -0.169853 
S   18.723257  15.951686  15.136452  -0.479231  -0.151009  -0.572513 
Mo  22.343808  15.997479  16.785839  -0.153628  -0.717335  -0.722145 
Mo  25.112214  17.597472  16.730928   0.150114   0.356504   0.330189 
S   24.161786  16.031109  18.375734   0.132413   0.036637   0.267607 
S   26.942886  17.649570  18.302210   0.192198  -0.140217   0.507013 
S   26.996547  17.621537  15.152562  -0.008718   0.204703   0.392162 
S   24.206923  15.933635  15.206380  -0.213790   0.003622  -0.059463 
Mo  27.832678  15.977916  16.780572   0.756190   0.944967   0.299473 
Mo  30.689913  17.588174  16.749584  -0.149123   0.456517  -0.218165 
S   29.720407  16.002424  18.370865  -0.024046  -0.010982  -0.227706 
S   32.538027  17.549014  18.327859  -0.199930   0.557211   0.357079 
S   32.546632  17.672879  15.135312  -0.111414  -0.357688   0.295512 
S   29.686312  16.044115  15.173572  -0.046330  -0.181203  -0.173728 
Mo   0.059317  19.229882  16.754185   1.075231  -0.386845  -0.288518 
Mo   2.960298  20.835555  16.831277  -1.071006   0.128473  -0.062907 
S    1.955078  19.201744  18.336886  -0.086797  -0.156298   0.222488 
S    4.827693  20.763751  18.337418   0.163483  -0.042835   0.513393 
S    4.733831  20.859085  15.185450   0.395306   0.019705   0.081662 
S    1.997226  19.312703  15.212174  -0.428055  -0.349335  -0.179004 
Mo   5.708577  19.194719  16.696852  -0.360246   0.274683  -0.285189 
Mo   8.475907  20.884694  16.673671   0.064424  -1.073527   0.003061 
S    7.550674  19.238163  18.248853   0.299628  -0.213641  -0.016824 
S   10.363326  20.785552  18.218690  -0.118311   0.117513   0.076076 
S   10.293529  20.934612  15.005479   0.039146  -0.852927   0.453746 
S    7.541725  19.287690  15.015815  -0.082154  -0.211781   0.929003 
Mo  11.259663  19.226096  16.585747   0.181201   0.384690  -1.009826 
Mo  14.049481  20.841951  16.580741  -0.163383  -0.445231  -0.394706 
S   13.135705  19.253796  18.174769  -0.376521  -0.170030   0.081543 
S   15.862804  20.771606  18.180175   0.045541   0.412813   0.540982 
S   15.916716  20.828259  14.976245   0.106299   0.251116   0.761947 
S   13.190486  19.203497  14.948133  -0.675706   0.161593   0.634098 
Mo  16.807478  19.194140  16.637555  -0.271736   0.263884  -1.331932 
Mo  19.598393  20.768011  16.629386   0.035859  -0.077666  -0.374621 
S   18.579893  19.177996  18.209029   0.910044   0.151212   0.298063 
S   21.417594  20.732994  18.299160  -0.233695  -0.087079  -0.270802 
S   21.530785  20.736727  15.058243  -0.538199   0.351468   0.125462 
S   18.622326  19.219313  14.958744   0.428263  -0.270586   0.776857 
Mo  22.366132  19.179368  16.676915   0.306437  -0.081994   0.221034 
Mo  25.180390  20.838696  16.803979  -0.226915  -0.049942  -0.026398 
S   24.150984  19.219347  18.332056   0.360153  -0.279173   0.027376 
S   26.972500  20.815481  18.399717   0.611047   0.259654   0.064845 
S   27.008915  20.888603  15.225483   0.358621  -0.328482  -0.333931 
S   24.323912  19.283133  15.192478  -0.581506  -0.469971  -0.603827 
Mo  27.966090  19.254881  16.787050  -0.749604  -0.496821  -1.141921 
Mo  30.692539  20.936879  16.788691  -0.335826  -0.988987   0.231049 
S   29.798952  19.219866  18.297988   0.208167   0.235445   0.711435 
S   32.533262  20.825592  18.383683  -0.498647   0.255971   0.557355 
S   32.513325  20.874726  15.188172   0.121149   0.376767   0.079240 
S   29.841433  19.225095  15.131950  -0.398879   0.442143   0.725967 
Mo   0.104206  22.409204  16.810252   0.328116   0.154394   0.115283 
Mo   2.909526  24.008135  16.818261   0.076685   0.118871   0.069567 
S    1.946427  22.394823  18.460288   0.332327   0.197371  -0.619739 
S    4.769161  23.972888  18.407649  -0.047291   0.451898  -0.078099 
S    4.753225  24.026268  15.199732  -0.049515  -0.171791   0.106371 
S    2.011127  22.428328  15.259203  -0.362585  -0.179722  -0.352623 
Mo   5.720644  22.433130  16.813593   0.062562  -0.425925  -0.432503 
Mo   8.486225  24.015183  16.769454  -0.605302  -0.179799   0.562423 
S    7.613115  22.372250  18.436383  -0.140661   0.387896  -0.992658 
S   10.338717  23.961142  18.349558   0.085176   0.168344  -0.174095 
S   10.269901  24.069051  15.109525   0.263357   0.216447   0.313464 
S    7.503379  22.452180  15.143083   0.027773   0.398556   0.084009 
Mo  11.235249  22.435081  16.654735   0.069212   0.061838  -0.217831 
Mo  14.008538  24.041137  16.657195   0.261755  -0.828502   0.034572 
S   13.065652  22.366314  18.206205   0.529604   0.403163   0.252563 
S   15.836172  23.998815  18.299374   0.300159  -0.377776  -0.471206 
S   15.911231  24.049799  15.084420  -0.204829  -0.020312   0.107445 
S   13.078149  22.438981  15.029937  -0.022342   0.301420   0.099826 
Mo  16.833449  22.413741  16.663304  -0.053940  -0.006127  -0.392665 
Mo  19.641116  23.957121  16.748405  -0.079491   0.266044  -0.288397 
S   18.714330  22.341621  18.253665  -0.472301  -0.128252   0.196150 
S   21.534843  23.926028  18.378937  -0.576819   0.145518  -0.305916 
S   21.492093  23.991068  15.182556  -0.029312  -0.342822  -0.325651 
S   18.697644  22.425990  15.025782   0.096881   0.026003   0.847440 
Mo  22.374003  22.328622  16.729981   0.315906   0.524378  -0.105007 
Mo  25.135657  24.049202  16.800543   0.476583   0.084461   0.037421 
S   24.214863  22.428360  18.320955  -0.248983  -0.167856   0.765594 
S   27.036844  24.096913  18.416465  -0.394717   0.026452  -0.426470 
S   26.958315  24.088116  15.228301   0.450312  -0.203391  -0.210800 
S   24.286506  22.419810  15.198216  -0.237250   0.058163  -0.241083 
Mo  27.926814  22.475266  16.806369  -0.710047   0.035319   0.637685 
Mo  30.647723  24.138080  16.799148   0.552813  -1.152604   0.491448 
S   29.710203  22.587423  18.446750   0.491438  -0.718433  -0.519424 
S   32.504147  24.055216  18.492470  -0.079211  -0.092126  -0.817376 
S   32.486048  24.053555  15.269157   0.612446  -0.071615  -0.400019 
S   29.725589  22.499815  15.227028   0.192381   0.174055  -0.319756 
