288
Lattice="33.323745 0.034962 0.03087 0.026903 25.662742 -0.000664 0.027093 9e-05 30.523323 " PBC="1 1 1" Properties="species:S:1:pos:R:3:force:R:3" Energy=" -5.284563"
Mo   0.050151  -0.061683  16.813315  -0.776962  -0.459005  -0.322877 
Mo   2.785625   1.522648  16.737742  -0.018895   0.581303  -0.277315 
S    1.904835  -0.048977  18.322096   0.074137  -0.077762   0.920725 
S    4.599596   1.549121  18.317048   0.443632   0.306987   0.103630 
S    4.618613   1.570173  15.149004  -0.007815  -0.257179  -0.348523 
S    1.834795  -0.151603  15.253706   0.257616   0.574587  -1.312042 
Mo   5.535607  -0.042629  16.729081  -0.580438  -0.460042  -0.288408 
Mo   8.340198   1.549297  16.696882   0.030922  -0.696493  -0.189442 
S    7.328440  -0.022387  18.293165   0.746689   0.162780   0.406197 
S   10.211663   1.491561  18.279531   0.034259   0.298628   0.057327 
S   10.226230   1.519778  15.077495  -0.226772   0.032313   0.401569 
S    7.394190  -0.092370  15.138794  -0.092240   0.465305  -0.316199 
Mo  11.143867  -0.088384  16.677279  -0.143667   0.067705  -0.475652 
Mo  13.909991   1.541999  16.605407   0.823672   0.347537   0.046081 
S   13.002813  -0.034180  18.200235   0.382646  -0.307795   0.426444 
S   15.821767   1.563556  18.184976  -0.830570  -0.438229   0.236252 
S   15.816362   1.531706  14.944320  -0.455387   0.095653   0.757915 
S   13.038193  -0.115293  15.092361  -0.682717   0.088312  -0.603793 
Mo  16.692934  -0.061556  16.617556   0.097617  -0.075291  -0.109859 
Mo  19.453890   1.575090  16.696887   0.796969  -0.581805   0.930063 
S   18.515888  -0.017937  18.289247  -0.169496   0.209891  -0.010069 
S   21.302330   1.609389  18.414276  -0.618098  -0.420690  -0.006420 
S   21.389618   1.552250  15.275736   0.109702   0.224445  -0.514641 
S   18.543007  -0.089866  15.084341   0.750889   0.192854   0.135496 
Mo  22.284742  -0.023872  16.884322   0.027329  -0.298147  -0.643134 
Mo  24.978794   1.636456  16.969266   0.711809  -0.491557  -0.674436 
S   24.094754  -0.063968  18.488285   0.085974   0.330951   0.291330 
S   26.812677   1.594049  18.608928  -0.164251   0.016924   0.232764 
S   26.880291   1.642764  15.406831  -0.087967  -0.390877   0.350941 
S   24.187206   0.008598  15.330755  -0.254804  -0.199747  -0.002965 
Mo  27.777405   0.024471  17.034964   0.717390  -0.189993  -0.768530 
Mo  30.650510   1.607499  16.977311  -0.917546   0.229744  -0.437790 
S   29.736824   0.034401  18.610733  -0.424537  -0.442386  -0.676693 
S   32.538303   1.549397  18.451285   0.133689   0.637932   0.513743 
S   32.447938   1.598633  15.261558  -0.329080  -0.226183   0.311293 
S   29.619324   0.066614  15.391118   0.068036  -0.442254   0.362885 
Mo   0.107334   3.142440  16.799308  -1.291589   0.030365   0.870964 
Mo   2.836742   4.775846  16.759963  -1.154137  -0.422309  -0.518541 
S    1.946438   3.136672  18.357920   0.117832   0.121173   0.078831 
S    4.645439   4.811879  18.338159   0.577470  -0.193532  -0.158567 
S    4.606604   4.681235  15.129770   0.133269   0.965017  -0.725754 
S    1.799652   3.111752  15.141373   0.909035   0.378428   0.034099 
Mo   5.519189   3.205253  16.713925   1.080020  -1.315958   0.920477 
Mo   8.417178   4.693288  16.669422  -0.257295   0.528783  -0.397823 
S    7.447772   3.119701  18.291641  -0.208647   0.350606  -0.012923 
S   10.266465   4.767400  18.236439  -0.325070  -0.333181   0.497127 
S   10.237679   4.675737  15.019323   0.017837   0.192445   0.574099 
S    7.404139   3.125458  15.120619  -0.159750  -0.007542  -0.266391 
Mo  11.151772   3.119206  16.702858  -0.339903  -0.088608  -1.051960 
Mo  13.893902   4.688334  16.716673  -0.168058   0.366880  -1.457137 
S   12.953001   3.111778  18.270871   0.535539  -0.489432   0.312838 
S   15.708674   4.704549  18.248125   0.731495  -0.017948  -0.043579 
S   15.751518   4.801782  15.084127  -0.110420  -0.644667  -0.128628 
S   12.957556   3.181923  15.039208   0.162598  -0.418953   0.385646 
Mo  16.704690   3.103072  16.616650   0.320510   1.337781  -0.143276 
Mo  19.402411   4.827425  16.780399   1.408386  -0.926661  -0.181291 
S   18.529318   3.163189  18.283979  -0.530007  -0.219236   0.224983 
S   21.225936   4.802687  18.471640   0.040883   0.410902  -0.751945 
S   21.328540   4.808505  15.295839   0.020047   0.030504  -0.557033 
S   18.682552   3.193349  15.142565  -0.927015   0.185846  -0.740485 
Mo  22.237445   3.205764  16.886079  -0.260666   0.280528  -0.596345 
Mo  24.999871   4.800417  16.849117  -0.801097   0.154675   0.994928 
S   24.019895   3.249651  18.489453   0.274164   0.198992   0.238105 
S   26.787743   4.879374  18.573046   0.224627  -0.470228  -0.707044 
S   26.878772   4.685404  15.379659   0.390404   0.203409  -0.457484 
S   24.067292   3.173564  15.233619   0.242961   0.070547   0.867629 
Mo  27.798652   3.174529  17.058976  -0.667241   0.427539  -0.563571 
Mo  30.558946   4.792666  16.925810   0.671198  -0.245915   0.710917 
S   29.632231   3.213912  18.588905   0.876882  -0.045666   0.006147 
S   32.484488   4.810927  18.449232   0.007748  -0.327823   0.118338 
S   32.422482   4.780624  15.331159  -0.169468   0.234781  -0.554837 
S   29.619049   3.198313  15.410236   0.052365  -0.418800  -0.072910 
Mo   0.027150   6.393828  16.822487   0.200564  -0.623596   1.099964 
Mo   2.860092   7.954822  16.764679  -0.605118  -0.138745  -0.094631 
S    1.939274   6.352732  18.383653  -0.089338   0.105867  -0.241136 
S    4.717679   7.907999  18.321428   0.612503  -0.006618  -0.331637 
S    4.667064   7.937776  15.148394   0.461105   0.429144  -0.053788 
S    1.804664   6.412995  15.188826   0.491209  -0.281112  -0.057612 
Mo   5.652588   6.304291  16.660372  -0.586244   0.453726   0.196661 
Mo   8.400171   7.995204  16.643284  -0.150580  -0.832946   1.034162 
S    7.489809   6.287845  18.236000   0.229597   0.613679  -0.013062 
S   10.235893   7.916336  18.335903  -0.198434  -0.001026  -1.002731 
S   10.152990   7.993695  15.025293   0.753803  -0.274262   0.219869 
S    7.552195   6.358123  15.037835  -0.643101  -0.381369   0.484406 
Mo  11.108235   6.348270  16.638872  -0.006937   0.096267  -0.188691 
Mo  13.964115   7.965017  16.680507  -0.684446  -0.841051   0.327744 
S   12.964706   6.271725  18.235363   0.080260   0.923361   0.252384 
S   15.769646   7.954505  18.313029  -0.074195   0.115272  -0.372413 
S   15.779683   8.034224  15.077919   0.117512   0.039090   0.132840 
S   12.969336   6.313623  15.111290   0.479097   0.377903  -0.136524 
Mo  16.645648   6.384814  16.645050   0.576474  -0.132827   1.334364 
Mo  19.405373   8.030546  16.831052  -0.221410  -0.792724  -0.023860 
S   18.481583   6.327652  18.334332  -0.822550   0.862194   0.410068 
S   21.248450   8.037818  18.409522  -0.016527   0.058663   0.279496 
S   21.236882   8.043008  15.275901   0.194987  -0.260100  -0.952685 
S   18.567414   6.431663  15.173361  -0.119243   0.037984  -0.403924 
Mo  22.195121   6.459381  16.818508   0.152362  -0.735477   0.484496 
Mo  24.992989   7.952902  16.861602   0.090483   0.421949  -0.387595 
S   23.980121   6.468005  18.445511   0.390627  -0.692442  -0.041591 
S   26.796857   7.944781  18.505632   0.454717   0.038152  -0.547483 
S   26.873886   7.891011  15.296480  -0.050825   0.499979  -0.292097 
S   24.122211   6.388919  15.212122  -0.469251  -0.094209   0.370124 
Mo  27.807576   6.363201  16.870992  -0.254308  -0.237533   1.358073 
Mo  30.528680   8.010272  16.930199   0.073365  -0.472586   0.049788 
S   29.657883   6.379979  18.509838  -0.271777   0.146777   0.047265 
S   32.438510   7.992813  18.542772  -0.185292  -0.200284  -0.383948 
S   32.346679   7.968090  15.367076   0.277086   0.673955  -0.698825 
S   29.684986   6.328115  15.321012  -0.264666   0.688385  -0.284964 
Mo   0.051714   9.532279  16.917384   0.114473  -0.270937  -0.284899 
Mo   2.887824  11.098146  16.855990  -0.445119   1.015882   0.017408 
S    2.001000   9.468953  18.443760  -0.343931   0.222820  -0.010896 
S    4.738376  11.155729  18.469177   0.298343  -0.190076  -0.688640 
S    4.666604  11.213598  15.196942   0.297352  -0.103899   0.347321 
S    1.845802   9.620871  15.236421   0.312653  -0.612123   0.182103 
Mo   5.644142   9.607035  16.765486  -0.563932  -0.740703  -0.193897 
Mo   8.501267  11.175089  16.690923  -1.327389   0.023479  -0.252114 
S    7.538912   9.604727  18.252846  -0.084892  -0.303202   0.539166 
S   10.292002  11.100485  18.308084  -0.080051   0.061477   0.209708 
S   10.308240  11.140138  15.076118  -0.006024   0.208296   0.253168 
S    7.430987   9.603536  15.115314   0.224895   0.208094  -0.134890 
Mo  11.161238   9.503130  16.676744   0.011765   0.478514  -0.022673 
Mo  13.948228  11.196479  16.739942  -0.437297   0.075729  -0.058786 
S   12.982735   9.533380  18.254294   0.426589   0.039876   0.481152 
S   15.757513  11.221403  18.356490  -0.088598  -0.335000   0.275839 
S   15.781484  11.213440  15.133508   0.009825   0.334907  -0.065272 
S   13.057663   9.565261  15.136984  -0.259690   0.251545  -0.394520 
Mo  16.664414   9.646214  16.729190  -0.239549  -1.291163   0.274895 
Mo  19.457930  11.167181  16.778645   0.053778   0.707726   0.388949 
S   18.410547   9.586684  18.378140   0.660947   0.533570   0.258355 
S   21.336770  11.125175  18.443251  -0.712394   0.694395  -0.365537 
S   21.262812  11.124307  15.154301   0.128438   0.388458  -0.007529 
S   18.536607   9.584731  15.207670  -0.118802   0.239448  -0.510484 
Mo  22.176170   9.614426  16.802264   1.129845  -0.604558   0.395011 
Mo  24.984481  11.167043  16.858660  -0.114282   0.685189  -1.442381 
S   24.103908   9.611037  18.408941  -0.736718  -0.401105   0.260582 
S   26.816724  11.128537  18.441749   0.030240   0.431672   0.249053 
S   26.800654  11.095696  15.239568   0.351062   0.489588   0.321498 
S   24.048159   9.529600  15.221941   0.245374   0.425042   0.416764 
Mo  27.758818   9.552507  16.876552  -0.398286  -0.327550   0.041605 
Mo  30.567701  11.111289  16.901263  -0.266267   0.430852  -0.426279 
S   29.571148   9.602933  18.502267   0.048851  -0.230503   0.202652 
S   32.427531  11.142031  18.517995  -0.043538   0.125713  -0.022295 
S   32.401360  11.044152  15.311934   0.310578   0.710913  -0.050862 
S   29.556416   9.550623  15.260999   0.592584   0.074167   0.395109 
Mo   0.023555  12.674820  16.855757  -0.085557   0.574642   0.593521 
Mo   2.837921  14.322841  16.955489  -0.282669   0.940252  -0.316559 
S    1.925366  12.671961  18.458480  -0.372635  -0.101436   0.260458 
S    4.702182  14.306491  18.474590   0.485128   0.163532   0.224800 
S    4.665143  14.384160  15.295700  -0.091782  -0.217323   0.127132 
S    1.909037  12.798484  15.358503   0.168152  -0.655030  -0.664672 
Mo   5.666982  12.765123  16.822035  -0.303673  -0.236487  -0.264230 
Mo   8.410620  14.403434  16.690976   0.574274  -0.712089   0.430120 
S    7.587093  12.776030  18.328176   0.001889   0.000754  -0.224519 
S   10.308860  14.418033  18.295594  -0.802976  -0.418431   0.454311 
S   10.299308  14.386157  15.139647  -0.327445  -0.006771  -0.073163 
S    7.500217  12.763655  15.084561  -0.268660   0.201882   0.843621 
Mo  11.142422  12.753329  16.767944   1.118795   0.054668  -1.043100 
Mo  13.907392  14.435579  16.777108   0.648430  -0.411115  -0.054769 
S   12.994717  12.800835  18.358986   0.056856  -0.115035  -0.200551 
S   15.805741  14.352495  18.385096  -0.327326   0.620030  -0.312011 
S   15.779759  14.409959  15.200790  -0.057208  -0.149614   0.060416 
S   13.016456  12.811916  15.154648  -0.075563   0.139070   0.304850 
Mo  16.701016  12.772874  16.796112   0.407894   0.791871  -0.864772 
Mo  19.492953  14.441301  16.737764  -0.207238  -0.283221   0.370491 
S   18.603828  12.842669  18.352178  -0.294696  -0.283729  -0.153338 
S   21.319481  14.361923  18.349115  -0.067523  -0.064883  -0.078159 
S   21.388810  14.405977  15.203626  -0.339758  -0.201522  -0.335318 
S   18.540802  12.874365  15.145518   0.172568  -0.832429   0.477634 
Mo  22.214760  12.706829  16.761285  -0.234127   0.899710  -0.417096 
Mo  24.987991  14.418046  16.867635   0.469993  -0.938352  -0.176522 
S   23.953696  12.816498  18.368525   0.896746  -0.409749   0.440928 
S   26.866672  14.260424  18.504434  -0.244968   0.449732  -0.384330 
S   26.843228  14.345579  15.294967   0.198284   0.303668  -0.042114 
S   24.130381  12.858904  15.149804  -0.214293  -0.676281   1.010417 
Mo  27.783565  12.727008  16.849696  -0.528127  -0.498442  -0.126584 
Mo  30.548615  14.337520  16.834515   0.630331   0.255850   0.408023 
S   29.635961  12.755098  18.414224   0.002463  -0.169233   0.540474 
S   32.384073  14.354295  18.484822   0.119274  -0.015535  -0.372475 
S   32.458177  14.363626  15.313637  -0.203037  -0.163220  -0.285402 
S   29.657318  12.723458  15.293006  -0.041924  -0.277774  -0.434025 
Mo  -0.042409  15.981338  16.867248   1.044257  -0.986383   0.816930 
Mo   2.841946  17.582336  16.829437  -0.528583  -0.036433   0.629490 
S    1.868630  16.023817  18.498364  -0.019179  -0.222795  -0.530401 
S    4.705184  17.601154  18.420404  -0.172807  -0.263553   0.473876 
S    4.662071  17.542178  15.238072   0.416086  -0.057930   0.304679 
S    1.842004  15.902408  15.358349   0.385227   0.252512  -0.390622 
Mo   5.614586  15.941552  16.902453   0.213496   0.445617  -0.785318 
Mo   8.423250  17.568549  16.765536  -0.199050   0.106914  -0.029819 
S    7.595662  15.937194  18.384385  -0.641189   0.106262  -0.044635 
S   10.258790  17.605418  18.336885   0.165637  -0.064267   0.095390 
S   10.250840  17.650158  15.124342  -0.072525  -0.660672   0.280188 
S    7.390211  15.964801  15.174725   0.000922   0.342853   0.233780 
Mo  11.192661  15.990108  16.743777   0.518180   1.034034  -0.427820 
Mo  14.010516  17.626211  16.800608  -0.289623  -0.747359  -0.495130 
S   13.045575  16.038981  18.409322  -0.183332  -0.050363  -0.479021 
S   15.854533  17.606302  18.421436  -0.265267  -0.107479  -0.225608 
S   15.852523  17.620255  15.189353  -0.250285  -0.032832  -0.134580 
S   13.052714  16.070337  15.138230   0.020947  -0.215048   0.548278 
Mo  16.719174  16.015864  16.767672   0.477403  -0.310150   0.928899 
Mo  19.591252  17.613645  16.834076  -1.402616  -0.292108   0.555574 
S   18.575772  15.982463  18.436071   0.128521   0.131166  -0.949555 
S   21.403382  17.565406  18.477464  -0.338533  -0.126926  -0.003454 
S   21.456110  17.650247  15.300733  -0.141123   0.465889  -0.376466 
S   18.542169  16.040017  15.140224   0.644700   0.371101   0.605670 
Mo  22.276540  15.993813  16.799232   0.421281  -0.273228   1.178356 
Mo  24.992094  17.592646  16.987320   0.988361  -0.256714  -0.631915 
S   24.061427  15.935104  18.499007  -0.170821   0.189620   0.068579 
S   26.888721  17.545754  18.531748  -0.006747  -0.284232   0.103930 
S   26.812588  17.616486  15.316519   0.388191  -0.311608   0.799080 
S   24.128655  16.030984  15.269477   0.180397   0.246289   0.068161 
Mo  27.771253  15.924113  16.919070  -0.021006   0.483842  -0.446695 
Mo  30.571869  17.551911  16.909885  -0.392542   0.291756  -0.134258 
S   29.675250  15.916062  18.450227  -0.302620   0.042556   0.404026 
S   32.408573  17.653440  18.448227   0.142771  -0.409925   0.608557 
S   32.372584  17.519805  15.255943  -0.029124   0.335686  -0.161852 
S   29.606929  15.949806  15.277879  -0.107258   0.192694   0.199028 
Mo   0.025900  19.111719  16.779318   0.369889   0.696079   0.580073 
Mo   2.823989  20.772432  16.860203  -0.296095   0.425737  -0.439992 
S    1.859867  19.194490  18.427240   0.244228  -0.483506  -0.158314 
S    4.753300  20.818624  18.403943  -0.525770  -0.114051   0.140720 
S    4.643321  20.812675  15.305254   0.348270  -0.501681  -0.695959 
S    1.919342  19.189336  15.229195  -0.017865  -0.312074   0.051654 
Mo   5.635755  19.146167  16.837741   0.192032   0.854836  -0.320454 
Mo   8.383446  20.865888  16.846551   0.123142  -0.667371  -1.303558 
S    7.527872  19.146445  18.432095  -0.174847   0.371921  -0.363615 
S   10.296143  20.903227  18.359670  -0.133442  -0.739550   0.078838 
S   10.210629  20.882051  15.143024  -0.101320  -0.588987   0.571335 
S    7.505063  19.208283  15.255449  -0.396064   0.078621  -0.142124 
Mo  11.130831  19.206998  16.744598   1.230098   0.631846  -0.105624 
Mo  13.992896  20.795445  16.740467  -0.188078  -0.263737  -0.509946 
S   13.071443  19.175023  18.345345  -0.682939   0.661812  -0.039834 
S   15.810133  20.876454  18.360082   0.290580  -0.596316  -0.143758 
S   15.838844  20.773001  15.166277   0.287344  -0.108468  -0.005683 
S   13.089058  19.170265  15.144765  -0.642562   0.199061   0.436344 
Mo  16.755283  19.178091  16.799172   0.181171   0.784155   0.763871 
Mo  19.535920  20.824722  16.877268   0.177422  -0.361230   0.121099 
S   18.586466  19.180666  18.499287   0.139930   0.123614  -1.017293 
S   21.353782  20.862699  18.522978   0.041176  -0.007104  -0.010074 
S   21.435673  20.773556  15.320962  -0.049972   0.083576   0.213913 
S   18.619940  19.203124  15.269009   0.375112   0.096417  -0.107797 
Mo  22.343319  19.233525  17.000748  -0.768915  -0.394078  -0.776895 
Mo  25.080094  20.786917  16.996199  -0.143097   0.481082  -0.431282 
S   24.148791  19.183890  18.598657   0.060045   0.244912   0.460297 
S   26.911385  20.825031  18.502331   0.646891  -0.159346   0.592598 
S   26.917244  20.790258  15.388090   0.173588  -0.044883   0.090719 
S   24.168908  19.220207  15.429348  -0.150459  -0.110313  -0.596512 
Mo  27.853233  19.140211  16.970324  -0.920173   0.719155   0.149938 
Mo  30.548465  20.783942  16.945218   0.724345   0.218285   0.113953 
S   29.683663  19.155966  18.614906   0.123150   0.016007  -0.741473 
S   32.527604  20.780232  18.462801  -0.561454   0.065647  -0.362717 
S   32.413198  20.777178  15.320754  -0.369779   0.103355  -0.494284 
S   29.625026  19.189335  15.396564   0.221646  -0.171806  -0.720467 
Mo   0.064129  22.377177  16.800673  -0.056926   0.422256   0.789549 
Mo   2.849512  23.991360  16.783051  -0.393649  -0.480208  -0.010381 
S    1.941259  22.388456  18.417559  -0.336415   0.221313  -0.092903 
S    4.591932  24.008704  18.402458   0.726717   0.570553   0.057191 
S    4.661061  23.958941  15.102163  -0.227974   0.664081   0.427316 
S    1.897899  22.441157  15.191043   0.020510  -0.995712   0.300378 
Mo   5.530740  22.487997  16.791384   1.527430  -1.291759  -0.080141 
Mo   8.346825  24.046099  16.735641   0.521227  -0.680346  -0.164529 
S    7.469019  22.484558  18.326931  -0.578191   0.064583   0.707952 
S   10.282568  24.013571  18.315150  -0.380411   0.080399  -0.066875 
S   10.197763  23.928536  15.137957   0.124830   0.627098  -0.172996 
S    7.395525  22.398131  15.125088   0.053196   0.121539   1.015194 
Mo  11.209508  22.417545  16.734892   0.227189  -0.159801  -0.057105 
Mo  13.971454  23.962530  16.640264   0.779174   0.467360   0.480190 
S   13.179870  22.411244  18.280353  -1.084929   0.219295   0.538202 
S   15.894808  24.017916  18.244583  -1.030829   0.292799   0.246889 
S   15.801429  23.923983  15.030234   0.489452   0.165392   0.489871 
S   13.027078  22.357389  15.077503   0.060042  -0.139966   0.327650 
Mo  16.778638  22.402004  16.744804  -0.011314  -0.038674  -0.737083 
Mo  19.534250  24.044345  16.764989   0.185627  -0.394793   0.334321 
S   18.579377  22.474947  18.391242   0.105799  -0.064781   0.005481 
S   21.380181  24.044129  18.418058  -0.421097  -0.105279   0.350455 
S   21.452865  23.937941  15.279956   0.126783   0.765462  -0.168926 
S   18.684595  22.388346  15.227290  -0.168114   0.017326  -0.377882 
Mo  22.361047  22.397894  16.910363  -0.458386   0.231088   0.056059 
Mo  25.122149  24.016244  16.912197  -0.677906   0.391204   0.154562 
S   24.188912  22.473950  18.534579  -0.232145  -0.530144   0.130359 
S   26.911029  24.029134  18.541954   0.087795   0.042567   0.474421 
S   26.949670  24.029518  15.385552   0.183701   0.755548  -0.625125 
S   24.208143  22.389532  15.338313   0.092262  -0.087741  -0.022636 
Mo  27.848177  22.476331  16.936576  -0.005139  -1.349297   0.438948 
Mo  30.593738  24.042562  16.923751  -0.267931  -0.202813   0.331321 
S   29.684552  22.394778  18.551467   0.138712   0.484430  -0.367136 
S   32.509766  24.070820  18.475630  -0.151585  -0.585430  -0.335782 
S   32.375417  24.008639  15.274744   0.258525   0.107753   0.072143 
S   29.608012  22.422908  15.284333   0.682662   0.076132   0.671998 
