288
Lattice="33.329937 0.034994 0.030874 0.026928 25.657679 -0.000664 0.027096 9e-05 30.497543 " PBC="1 1 1" Properties="species:S:1:pos:R:3:force:R:3" Energy=" -5.285764"
Mo  -0.034003  -0.021441  16.880489   0.626389  -0.703688   0.341286 
Mo   2.778480   1.525784  16.784186   0.110746  -0.357427   0.744762 
S    1.860677  -0.081485  18.451909   0.345754   0.249653  -0.730141 
S    4.718817   1.483781  18.274082  -0.322373  -0.093154   0.479945 
S    4.630611   1.460305  15.162192  -0.176290   0.249636  -0.199062 
S    1.857946  -0.043420  15.182067  -0.537927  -0.309436   0.824343 
Mo   5.577422  -0.176301  16.696821   1.130666   1.484989  -0.011722 
Mo   8.410128   1.462421  16.667398  -0.424102   0.750952  -0.554784 
S    7.471871  -0.067246  18.295185  -0.209246  -0.267446  -0.013922 
S   10.271503   1.507093  18.224825  -0.257208   0.368993   0.264980 
S   10.261663   1.471743  15.009314  -0.285389  -0.130531   0.458731 
S    7.463373  -0.134330  15.057911  -0.163239  -0.312407   0.871797 
Mo  11.177050  -0.108705  16.698815  -0.254184   0.077130  -0.854369 
Mo  13.968295   1.556356  16.686901  -1.156896  -0.719814  -0.780118 
S   13.032963  -0.061350  18.275084  -0.228223   0.227099   0.297304 
S   15.686263   1.569417  18.345849   0.740143   0.147487  -0.112505 
S   15.813799   1.525734  15.127819   0.236446   0.248185  -0.110782 
S   13.006101  -0.086967  15.087454   0.312388  -0.063530   0.392911 
Mo  16.725537  -0.027197  16.770787  -0.321394   0.123540  -0.069807 
Mo  19.496096   1.538486  16.836240  -0.941494   0.978198  -0.705161 
S   18.562507  -0.040485  18.402450  -0.068527  -0.162064  -0.013972 
S   21.287613   1.637543  18.444023   0.285900  -0.451683   0.076875 
S   21.353887   1.562323  15.246578   0.057391  -0.102723   0.034367 
S   18.591533  -0.076446  15.189569   0.177888   0.371848   0.170107 
Mo  22.268910  -0.010753  16.879410  -0.006666  -0.228826   0.596579 
Mo  25.051167   1.525707  16.929605   0.530356   0.103503   0.157914 
S   24.060117  -0.037601  18.529215   0.157631  -0.002396   0.032324 
S   26.943104   1.565869  18.520334  -0.272776  -0.228139  -0.427096 
S   26.897775   1.458381  15.310333   0.313366   0.510093   0.512624 
S   24.170116  -0.061825  15.363498  -0.193309  -0.301667  -0.247535 
Mo  27.853055  -0.132938  16.945606  -1.415449   1.107746   0.478294 
Mo  30.515686   1.584710  16.959105   0.424004  -0.662000   0.149699 
S   29.639022  -0.140424  18.485229   0.508060   0.613244   1.129958 
S   32.340649   1.623765  18.585579   0.287557  -0.506393  -0.584785 
S   32.323684   1.574299  15.334980   0.062789  -0.084352  -0.213227 
S   29.670632  -0.077010  15.396551   0.205371  -0.338414  -0.522880 
Mo  -0.060558   3.114652  16.880160   1.028878   0.287412  -0.021969 
Mo   2.809602   4.695832  16.787152   0.135407   0.702769   1.041067 
S    1.898014   3.138757  18.449451  -0.172306  -0.322851  -0.548636 
S    4.715271   4.691678  18.353387  -0.309824  -0.196749  -0.027038 
S    4.655827   4.756578  15.138316  -0.301271  -0.478032   0.087846 
S    1.794987   3.130753  15.288776  -0.184384  -0.186444  -0.745296 
Mo   5.595299   3.094789  16.716327  -0.389379   0.211800  -0.428251 
Mo   8.321553   4.761540  16.652713   0.142062  -0.232532   0.781442 
S    7.451140   3.125282  18.235644   0.516575  -0.298848   0.379047 
S   10.219782   4.770232  18.211269  -0.090629  -0.288675  -0.186278 
S   10.112101   4.769143  15.047818   0.414662   0.058276  -0.348534 
S    7.395594   3.091452  15.104284   0.382277  -0.014719  -0.175906 
Mo  11.101367   3.130833  16.574295   0.477455  -0.068106   0.000143 
Mo  13.897824   4.744453  16.577486   0.096118   1.025663   1.052890 
S   12.890500   3.102428  18.173541   0.545776   0.848720   0.301351 
S   15.683792   4.751961  18.255050  -0.088202   0.473468   0.083234 
S   15.832249   4.757695  15.087867  -0.217734   0.347092  -0.192856 
S   13.085601   3.136482  15.015442  -0.869352  -0.389962  -0.064757 
Mo  16.663262   3.181536  16.726608   0.190539  -0.818852  -0.008235 
Mo  19.498762   4.740393  16.769349  -1.043112   0.532683   0.029582 
S   18.409534   3.186059  18.406944   0.929878  -0.139387  -0.607454 
S   21.273342   4.722529  18.417767   0.134983   0.251866  -0.027802 
S   21.364558   4.763264  15.217751   0.047969  -0.101764  -0.230512 
S   18.535281   3.160103  15.165229   0.539489  -0.410179   0.435195 
Mo  22.271313   3.170267  16.819120  -0.344304  -0.392444   0.947862 
Mo  24.978782   4.755534  17.001694   1.257179   0.062806  -0.751948 
S   24.123015   3.083507  18.504466  -0.713303   0.398560   0.256029 
S   26.870292   4.791781  18.531291  -0.100054  -0.248928   0.320732 
S   26.867247   4.774147  15.360266  -0.457934   0.267051   0.012825 
S   24.147144   3.157624  15.357699   0.381726  -0.128123  -0.577405 
Mo  27.803112   3.203712  16.903779   0.217998  -1.112833   0.219595 
Mo  30.551938   4.755501  16.918102  -0.325328   0.626484   0.312354 
S   29.605018   3.147744  18.581282  -0.005376   0.405348  -0.614992 
S   32.436845   4.762446  18.454609  -0.214877   0.267308   0.679522 
S   32.358588   4.784857  15.284367   0.204968  -0.272128   0.193783 
S   29.683378   3.165851  15.304067  -0.603773  -0.026243   0.207983 
Mo   0.022204   6.316250  16.845453  -0.025623   0.070155   0.343467 
Mo   2.725486   7.958004  16.849204   1.305135  -0.340770   0.421556 
S    1.905749   6.347583  18.462617  -0.123703  -0.587195  -0.506544 
S    4.698213   7.970548  18.387906  -0.574358  -0.354468  -0.155985 
S    4.552160   7.945944  15.215614   0.026105  -0.080371  -0.069319 
S    1.866329   6.309059  15.257114  -0.119515   0.237292  -0.232584 
Mo   5.533631   6.311140  16.756054   0.489405   1.119502   0.515755 
Mo   8.415183   7.952746  16.706646  -0.720480   0.312297  -0.405102 
S    7.459294   6.394570  18.307123  -0.073622  -0.638464  -0.134375 
S   10.244107   7.901408  18.250216   0.205503   0.564564   0.284906 
S   10.252911   7.980360  15.010588  -0.702297   0.168593   0.289081 
S    7.360597   6.406784  15.188372   0.010696  -0.197570  -0.976849 
Mo  11.116733   6.375120  16.610351   0.796385  -0.286480   0.333379 
Mo  13.885700   8.026852  16.666543   0.309612   0.104197   0.028883 
S   13.054395   6.433297  18.229054  -0.824546  -0.833577  -0.283553 
S   15.742432   7.995835  18.280894   0.069603   0.143612  -0.266191 
S   15.776088   8.020388  15.109672  -0.037886  -0.430017  -0.232243 
S   12.962341   6.431428  15.023223   0.397152  -0.261309   0.211774 
Mo  16.718636   6.368494  16.704604  -0.637620   0.263118  -0.192627 
Mo  19.515237   7.965548  16.689810  -0.352010   0.424055   1.112647 
S   18.514087   6.362018  18.329972   0.463751   0.233656  -0.347116 
S   21.311408   7.978791  18.357579  -0.257880   0.178507  -0.175386 
S   21.405681   7.955812  15.148980   0.016314  -0.128404   0.302052 
S   18.594872   6.423404  15.112234  -0.025928  -0.950860   0.237728 
Mo  22.255578   6.333972  16.839198  -0.593736   0.502773  -0.079902 
Mo  24.948949   8.004733  16.900769   0.540615   0.012182   0.377560 
S   23.993900   6.374723  18.514235   0.357526   0.185406   0.182967 
S   26.861663   8.033886  18.472736  -0.392540  -0.091185   0.574792 
S   26.821238   7.996814  15.341057   0.382272  -0.012830   0.172546 
S   24.154472   6.318017  15.366742  -0.189420   0.236007  -0.733925 
Mo  27.766274   6.373967  16.967614   0.213836   0.521475  -0.527401 
Mo  30.593572   7.972196  16.880722  -0.097787  -0.335059   0.696865 
S   29.666575   6.385952  18.565866  -0.060814  -0.036383  -0.752572 
S   32.437454   7.988016  18.478616   0.076380  -0.420504  -0.020208 
S   32.413839   7.889198  15.254119   0.087975   0.612046   0.232227 
S   29.564055   6.404063  15.331529   0.293810  -0.497310   0.121893 
Mo  -0.003724   9.514934  16.838797   0.015613   0.604865   0.259678 
Mo   2.795195  11.160406  16.811320   0.381195  -0.537975   0.098640 
S    1.853523   9.575850  18.460623   0.001713   0.048921  -0.338163 
S    4.717899  11.185115  18.320785  -0.356127  -0.031411   0.452725 
S    4.630379  11.148825  15.157337  -0.078938   0.145010   0.314297 
S    1.857701   9.528951  15.278532  -0.348010   0.295066  -0.637525 
Mo   5.553482   9.544166  16.759904   0.663344   0.232990  -0.312814 
Mo   8.337728  11.191624  16.762845   0.229284  -0.108583  -0.486806 
S    7.450800   9.511584  18.315501   0.090264   0.286339   0.125511 
S   10.212317  11.204642  18.262943   0.280234   0.311385   0.303575 
S   10.164387  11.311594  15.065055  -0.260279  -0.792775   0.343786 
S    7.429932   9.581159  15.173086  -0.157632  -0.101535  -0.222202 
Mo  11.041895   9.615053  16.654091   1.025885  -0.176163  -0.140036 
Mo  13.946964  11.235032  16.672944  -0.745246  -0.224837  -0.637949 
S   12.897409   9.680263  18.258507   0.355611  -0.412388  -0.257889 
S   15.713505  11.239050  18.281669   0.782038  -0.156156  -0.287958 
S   15.820640  11.191287  15.085072  -0.326098   0.035300  -0.384500 
S   12.932357   9.611044  15.105251   0.109593   0.371054  -0.216149 
Mo  16.685780   9.599846  16.663108   0.473396   0.169594   0.621902 
Mo  19.451298  11.226796  16.683429   0.460531  -0.515472   0.099248 
S   18.493810   9.606874  18.284189   0.375525  -0.234506  -0.318682 
S   21.189711  11.198223  18.328728   0.584067  -0.052091   0.045777 
S   21.331707  11.297114  15.089584   0.148382  -0.729207   0.694852 
S   18.653728   9.588023  15.092582  -0.830523  -0.052795  -0.002349 
Mo  22.233568   9.608740  16.766727  -0.668448   0.239403   0.007377 
Mo  24.977482  11.178532  16.874532   0.713893  -0.287383   0.039292 
S   23.979466   9.605910  18.477748   0.118671   0.099155  -0.237433 
S   26.845000  11.205881  18.479055  -0.216964  -0.375701   0.316873 
S   26.861555  11.200752  15.330781   0.305515  -0.289530  -0.072889 
S   24.090909   9.618431  15.248764   0.250345  -0.357113  -0.110297 
Mo  27.848709   9.594951  16.934026  -0.536204   0.230329  -0.716500 
Mo  30.555734  11.218528  16.916397   0.532273   0.007080   0.228683 
S   29.737646   9.599838  18.498660  -0.540344  -0.191597   0.133687 
S   32.443257  11.198610  18.504225  -0.152489  -0.499250  -0.219284 
S   32.400257  11.178870  15.313413  -0.122503  -0.110429  -0.293168 
S   29.719315   9.585247  15.326007  -0.624542   0.253653  -0.311367 
Mo   0.022002  12.712434  16.867457   0.220032   0.736443  -0.255261 
Mo   2.862956  14.390952  16.764895  -0.392543  -0.632852  -0.564585 
S    1.914153  12.780126  18.368229   0.348690   0.081381   0.393143 
S    4.747890  14.448955  18.305429  -0.310249  -0.159697   0.296257 
S    4.675743  14.408739  15.076092  -0.047908  -0.129352   0.595873 
S    1.863367  12.706962  15.222805  -0.140605   0.487533   0.006427 
Mo   5.576101  12.822081  16.744408   0.028349  -0.433601  -0.163242 
Mo   8.405970  14.363985  16.790469  -1.017845   0.795890  -0.927117 
S    7.465569  12.821981  18.339236  -0.450743  -0.491827   0.509077 
S   10.242063  14.363474  18.315464   0.577540   0.410385   0.183242 
S   10.137213  14.414109  15.121020   0.607692   0.218214  -0.200076 
S    7.391073  12.779426  15.225659   0.415296   0.210630  -0.838045 
Mo  11.171103  12.846770  16.642253  -0.463535  -0.432560   0.060594 
Mo  13.990135  14.451440  16.630816  -0.386015   0.039715   0.092453 
S   13.012217  12.895448  18.152641   0.331777  -0.486174   1.207050 
S   15.812784  14.404670  18.280636   0.015668   0.013024  -0.402309 
S   15.799662  14.466310  15.038660   0.477537  -0.244392  -0.017454 
S   13.072578  12.843865  15.067290  -0.404763  -0.126803  -0.292507 
Mo  16.720308  12.823510  16.627425  -0.336696   0.156502   1.035308 
Mo  19.490947  14.462660  16.779641   0.422083  -0.493477  -0.208884 
S   18.536694  12.779854  18.272384  -0.312434   0.437265   0.389669 
S   21.272233  14.433069  18.419492   0.274791  -0.131686  -0.190260 
S   21.398979  14.417899  15.188440  -0.388896   0.594873   0.354430 
S   18.629038  12.885934  15.166303  -0.336268  -0.045513  -1.006875 
Mo  22.198066  12.814214  16.784349   0.756991   0.318183   0.346499 
Mo  25.066182  14.451082  16.888789  -1.014311  -0.216933  -0.757340 
S   24.071759  12.800212  18.368972  -0.453607   0.349345   0.761082 
S   26.851578  14.410416  18.487306   0.122813   0.158432   0.464751 
S   26.906685  14.437157  15.271480  -0.024470  -0.374915   0.325821 
S   24.154102  12.805381  15.278260  -0.229866   0.433087  -0.037766 
Mo  27.747188  12.815134  16.931998   0.671190   0.145696  -0.329598 
Mo  30.572297  14.423470  17.027874  -0.025123  -0.870186  -0.015385 
S   29.608214  12.774831  18.595425  -0.072661   0.133483  -0.610970 
S   32.557629  14.385230  18.549369  -0.675501  -0.185731  -0.139287 
S   32.347359  14.390423  15.400160   0.634473   0.191874  -0.212268 
S   29.607553  12.869421  15.369020   0.217277  -0.219743   0.190597 
Mo   0.099093  15.959022  16.912547  -0.260941  -0.352026  -0.532487 
Mo   2.764694  17.540281  16.823712   1.061083   0.280964   0.384970 
S    2.003164  15.881910  18.433553  -0.311739   0.427318   0.226380 
S    4.696330  17.570010  18.379532   0.104078   0.296775  -0.728924 
S    4.564711  17.612945  15.169043   0.110420  -0.043336  -0.106090 
S    1.852767  15.987746  15.205488  -0.059454  -0.363772   0.159646 
Mo   5.618734  16.022618  16.686362  -0.684744  -0.228684   0.448328 
Mo   8.386678  17.575663  16.714862  -0.100296   0.555780  -0.293406 
S    7.424273  15.996614  18.313461   0.435398   0.152541   0.229018 
S   10.257546  17.624967  18.276804   0.001946   0.024563   0.456869 
S   10.276823  17.585899  15.112412  -0.376680   0.425211   0.036416 
S    7.455644  15.967195  15.164470   0.444453  -0.188341  -0.519051 
Mo  11.151344  16.026254  16.714703   0.050564  -0.853832  -0.487595 
Mo  14.007174  17.577642  16.675228  -1.017517   1.637197  -0.192844 
S   13.028031  16.028191  18.216618   0.282454  -0.218521   0.811173 
S   15.833350  17.631001  18.290049  -0.133289  -0.232649  -0.064490 
S   15.783759  17.647396  15.040277   0.739593  -0.109918   0.668968 
S   12.983496  16.030226  15.075002   0.157265   0.106816  -0.038344 
Mo  16.751662  16.015698  16.675687  -0.672997   0.700531   0.193140 
Mo  19.519659  17.611579  16.750549   0.600050   0.919180   0.291896 
S   18.544382  16.080713  18.304762  -0.072752  -0.400756   0.765306 
S   21.373589  17.689556  18.392764  -0.567369  -0.418602   0.189968 
S   21.346475  17.651192  15.131729   0.396974  -0.510773   0.357880 
S   18.618573  16.049684  15.190863   0.015651  -0.193285  -1.133508 
Mo  22.242751  16.074392  16.854442   0.154815  -0.899948  -1.060387 
Mo  25.080196  17.601597  16.877220  -0.131619   0.342958  -0.182019 
S   24.044713  16.035193  18.479196   0.458028  -0.001830  -0.141609 
S   26.921392  17.555208  18.461602  -0.265296   0.185533   0.639008 
S   26.961544  17.584421  15.276897  -0.136919   0.222544   0.341060 
S   24.127168  16.070885  15.277200   0.050488  -0.362359   0.080647 
Mo  27.847422  15.987440  16.902115   0.071882  -0.154650   0.205548 
Mo  30.683248  17.511470  16.975122  -0.430728   0.138186   0.044707 
S   29.656121  15.999032  18.617726   0.054589  -0.110920  -0.307339 
S   32.588746  17.526135  18.631906  -0.606192   0.205828  -0.562198 
S   32.461508  17.631268  15.346990   0.392834  -0.481219   0.273273 
S   29.692537  15.963407  15.347853   0.431201   0.063009   0.136255 
Mo   0.052516  19.145244  16.967227   0.027137   0.148331  -0.098498 
Mo   2.815134  20.769593  16.783314   0.286273  -0.721309   0.640138 
S    1.980840  19.139092  18.496392  -0.264857   0.403235  -0.509269 
S    4.741226  20.754957  18.331410  -0.519591   0.176187   0.156481 
S    4.584693  20.762900  15.080591   0.292170   0.121937   0.649076 
S    1.788919  19.123819  15.279873   0.154980   0.412445  -0.122969 
Mo   5.569788  19.211425  16.713299  -0.079559  -0.966089   0.228892 
Mo   8.425153  20.710791  16.653216  -0.570437   0.793126   0.277573 
S    7.469912  19.216554  18.285183  -0.090007  -0.558051  -0.007749 
S   10.244997  20.739728  18.288013   0.180243   0.187612  -0.011984 
S   10.267549  20.700460  15.055692   0.149295   0.643105   0.328660 
S    7.343456  19.134781  15.086324   0.811070   0.088253   0.138250 
Mo  11.236606  19.214090  16.699570  -0.820165  -0.791973  -0.345659 
Mo  14.000027  20.842106  16.711313   0.169734  -0.465863   0.211119 
S   13.030281  19.241773  18.292580   0.773890  -0.478182  -0.115755 
S   15.835493  20.857763  18.351622   0.045834   0.083536  -0.614042 
S   15.916510  20.882684  15.115740  -0.554712  -0.105938   0.232739 
S   13.041600  19.247523  15.085767   0.605004  -0.349700   0.394866 
Mo  16.750281  19.240950  16.715494  -0.228109  -0.119761  -0.081425 
Mo  19.530266  20.828896  16.770887   0.083348   0.698898   0.084689 
S   18.605270  19.249419  18.290200  -0.406222  -0.384301   0.789873 
S   21.352250  20.723519  18.443472   0.115937   0.171351  -0.448906 
S   21.388292  20.841875  15.249007   0.440124   0.089496  -0.303799 
S   18.631475  19.226270  15.194569  -0.160853   0.045030  -0.728804 
Mo  22.310807  19.172596  16.757043  -0.035313   0.748069   0.907042 
Mo  25.034103  20.807872  16.893534   1.138906  -0.916841   0.042348 
S   24.149315  19.182490  18.477372  -0.467736  -0.000155  -0.447871 
S   26.893171  20.719729  18.507749  -0.266606   0.082604   0.566722 
S   26.982653  20.803062  15.363668  -0.372764   0.208004   0.120625 
S   24.185738  19.190540  15.218069   0.233254   0.112065   0.411732 
Mo  27.856596  19.163001  16.928943   0.484719  -0.280881  -0.468043 
Mo  30.615860  20.717021  16.979572   0.097293   0.313147  -0.158804 
S   29.731634  19.060580  18.517473  -0.387868   0.433287   0.511869 
S   32.437544  20.822761  18.543911   0.478900  -0.320459   0.420557 
S   32.425831  20.740784  15.351620   0.260134   0.288027   0.419603 
S   29.758970  19.115986  15.357221  -0.327981   0.025497   0.128855 
Mo   0.068831  22.357574  16.929854  -0.225173  -0.137607  -0.478810 
Mo   2.839825  23.968836  16.809584  -0.396063   0.128723  -0.404502 
S    1.969271  22.357084  18.435171   0.059224   0.152929   0.081527 
S    4.739621  23.999255  18.346094  -0.156858  -0.888142  -0.039514 
S    4.672780  23.940486  15.135193  -0.347165  -0.403855  -0.017958 
S    1.831101  22.341538  15.244844   0.102329   0.458615   0.003573 
Mo   5.632128  22.323810  16.722241  -0.722505   0.558098  -0.465773 
Mo   8.406969  23.934454  16.759749  -0.143175   0.229074  -1.456919 
S    7.439684  22.332438  18.317126   0.738435  -0.314393  -0.209242 
S   10.255930  23.919137  18.286496   0.389785   0.361879   0.229617 
S   10.219877  23.999716  15.052229   0.314350  -0.726683   1.096726 
S    7.488204  22.337457  15.106282  -0.037971   0.137099   0.263932 
Mo  11.217464  22.338667  16.701812  -1.214594   0.321589  -0.730906 
Mo  13.950353  23.975953  16.735380  -0.310967   0.116247  -0.718153 
S   13.005037  22.409626  18.330936   0.319974  -0.317520  -0.069558 
S   15.755349  24.079376  18.350165   0.431935  -0.442710  -0.035950 
S   15.778792  24.019628  15.169411   0.480859   0.296638  -0.327339 
S   13.020929  22.323221  15.113901   0.382808   0.751276  -0.202725 
Mo  16.764993  22.490480  16.734213   0.036745  -0.894755   0.592182 
Mo  19.550722  24.021951  16.798886   0.023107  -0.381792  -0.381303 
S   18.585452  22.440135  18.364124   0.033669  -0.130120  -0.143425 
S   21.318827  23.970043  18.453551   0.565563   0.326089  -0.092314 
S   21.528957  24.011922  15.286759  -0.597392  -0.331660   0.043472 
S   18.634212  22.453797  15.120716   0.078145  -0.013728   0.632817 
Mo  22.368456  22.354337  16.913215  -1.111024   0.699224  -0.590382 
Mo  25.056822  23.967617  17.004280   0.576037   0.454243  -0.650399 
S   24.131786  22.372822  18.533548   0.061793  -0.262858   0.394460 
S   26.935643  24.029777  18.688880  -0.335910  -0.408475  -1.083792 
S   26.916948  23.994393  15.388602   0.006465  -0.809422   0.367990 
S   24.203255  22.357506  15.288026  -0.162651   0.762921   0.326487 
Mo  27.824582  22.376361  17.060421   0.190773   0.393273  -1.129536 
Mo  30.614034  23.935458  16.980857   0.752819   0.405491   0.145228 
S   29.700662  22.303963  18.582746   0.073614   0.198793   0.438370 
S   32.510017  24.004923  18.560661  -0.192806   0.191559  -0.267379 
S   32.448864  23.961170  15.383664  -0.079827   0.364735  -0.193004 
S   29.711565  22.351948  15.467450  -0.723375  -0.213084  -0.727068 
