288
Lattice="33.32774 0.034945 0.030861 0.02689 25.65816 -0.000664 0.027085 9e-05 30.53486 " PBC="1 1 1" Properties="species:S:1:pos:R:3:force:R:3" Energy=" -5.286005"
Mo   0.004245  -0.043382  16.767231   0.562542  -0.041733   0.382740 
Mo   2.756756   1.563844  16.782088   0.762854   0.177924  -0.733957 
S    1.870774  -0.066802  18.320452  -0.166898   0.228561   0.661451 
S    4.640437   1.527728  18.338424   0.213234   0.455166  -0.063005 
S    4.608751   1.559081  15.133714  -0.164994  -0.305682  -0.024632 
S    1.897697  -0.034494  15.163828  -0.407834  -0.242432   0.120277 
Mo   5.595781  -0.011264  16.723789  -0.538382  -0.679107   0.201945 
Mo   8.395817   1.590677  16.681000   0.120209  -0.408626   0.155531 
S    7.475640   0.005952  18.289963  -0.310398   0.378248   0.560478 
S   10.289847   1.493476  18.283636  -0.460066   0.999520   0.085165 
S   10.232016   1.580979  15.089971   0.158399   0.011556  -0.077652 
S    7.378066  -0.060009  15.141799   0.551437   0.395458  -0.556854 
Mo  11.198159  -0.003619  16.673535  -0.210072  -0.487207  -0.182610 
Mo  13.969652   1.486449  16.694615  -0.391542   0.967264  -0.402671 
S   13.021591  -0.098509  18.279478   0.095076   0.191794   0.229823 
S   15.783643   1.611089  18.273830   0.312624  -0.428277  -0.054816 
S   15.758123   1.522569  15.058438   0.373227   0.161315  -0.033066 
S   13.022877  -0.051838  15.079937   0.055174  -0.185720  -0.274833 
Mo  16.702594  -0.023842  16.681340   0.251750  -0.330210  -0.185437 
Mo  19.452173   1.593244  16.753093   0.495972  -0.651807  -0.359415 
S   18.482030  -0.060480  18.329503   0.422726   0.203666  -0.348810 
S   21.245714   1.656523  18.397768  -0.204134  -0.255363   0.055428 
S   21.426493   1.633459  15.180871  -0.873271  -0.365585   0.283248 
S   18.693910  -0.062317  15.124227  -0.789013   0.172672   0.172045 
Mo  22.234936   0.044316  16.857133   0.523717  -0.526716  -0.033457 
Mo  25.095001   1.560854  16.937007  -1.460972   1.126183  -0.505991 
S   24.029877   0.072954  18.504779   0.070554  -0.398679   0.357618 
S   26.937163   1.555482  18.482903  -0.094310   0.208042   0.999308 
S   26.921503   1.535740  15.378600   0.287788   0.369127  -0.791578 
S   24.170827   0.041145  15.301497  -0.445581  -0.357938   0.154493 
Mo  27.828213  -0.041871  16.943202   1.352882   0.555814  -0.151146 
Mo  30.579278   1.587586  16.982199   0.381911  -0.447217  -0.907482 
S   29.702031  -0.130713  18.506872   0.133779   0.328563  -0.043248 
S   32.472000   1.575790  18.500368   0.142274   0.103400  -0.390763 
S   32.375861   1.657599  15.302352  -0.290256  -0.428737  -0.157934 
S   29.709161   0.024680  15.241813  -0.143490  -0.499571   1.338929 
Mo  -0.017497   3.208095  16.816564   0.663568  -0.314151   0.019170 
Mo   2.832188   4.776855  16.703917   0.829912  -0.687027   0.503854 
S    1.912881   3.219036  18.350097  -0.114764  -0.029700  -0.027888 
S    4.757463   4.769258  18.274802  -0.364912  -0.156565  -0.193947 
S    4.754130   4.762253  15.084717  -0.684094  -0.115788   0.378949 
S    1.805443   3.196817  15.179142   0.046141  -0.281065   0.005535 
Mo   5.625687   3.093621  16.695807  -0.435752   1.251319   0.361705 
Mo   8.349619   4.819219  16.707434   1.038188  -0.687457  -0.847376 
S    7.500929   3.216243  18.279719  -0.329240  -0.407561   0.162793 
S   10.257767   4.765321  18.306646  -0.210572  -0.322650  -0.124586 
S   10.273212   4.771388  15.096073  -0.407702  -0.103830   0.444439 
S    7.423908   3.149230  15.070605   0.449055   0.310780   0.394287 
Mo  11.199371   3.150355  16.692253  -0.696617  -0.212378  -0.097184 
Mo  13.943042   4.757244  16.657418  -0.069233  -0.475832  -0.622085 
S   13.041648   3.105167  18.251719   0.114899   0.266255   0.280565 
S   15.737925   4.728662  18.241436   0.487495   0.209613  -0.000091 
S   15.742745   4.778686  14.994033   0.356955   0.063854   0.383520 
S   13.037249   3.102156  15.080900  -0.036697   0.089009   0.235667 
Mo  16.678517   3.178618  16.616477  -0.209082  -0.283108   0.249090 
Mo  19.477902   4.730811  16.725055  -0.246159   0.788182   0.645151 
S   18.450703   3.165746  18.290870   0.039941   0.016304   0.125605 
S   21.219411   4.752918  18.455208   0.238245   0.338888  -0.661937 
S   21.318317   4.806240  15.149941   0.313414  -0.157992   0.256716 
S   18.585457   3.190448  15.125612  -0.110342  -0.440733  -0.535857 
Mo  22.200514   3.226099  16.814805   0.619968  -0.128725   0.014997 
Mo  25.005749   4.772574  16.910716  -0.653468  -0.017089  -0.239980 
S   23.997320   3.139556  18.484812   0.435414   0.383519  -0.398678 
S   26.800682   4.738078  18.561422   0.511872   0.139942  -0.695204 
S   26.875738   4.706585  15.331288   0.025710   0.191607  -0.053021 
S   24.100581   3.180442  15.250731   0.498595  -0.108570   0.840994 
Mo  27.857519   3.159515  16.929224  -0.611895   0.422113   1.052336 
Mo  30.616810   4.816573  16.932448  -0.378949  -0.444011   0.414748 
S   29.735442   3.182640  18.581141  -0.496782   0.270433  -0.234473 
S   32.500044   4.787588  18.491866  -0.318881   0.329452   0.038126 
S   32.355485   4.842065  15.193391   0.207014  -0.392146   0.782337 
S   29.681314   3.218781  15.403570   0.179929  -0.317737  -0.667428 
Mo   0.043783   6.325336  16.804195   0.690983  -0.255844   0.196726 
Mo   2.874952   7.910180  16.785871  -0.840569   0.701367  -0.303923 
S    1.948705   6.319562  18.356921  -0.061062  -0.039328   0.082000 
S    4.730385   7.934489  18.302537   0.162973   0.173588   0.363669 
S    4.645351   8.071386  15.109849   0.172102  -0.953948  -0.153637 
S    1.868681   6.301517  15.163905   0.164840   0.824276  -0.149338 
Mo   5.608623   6.410045  16.671707   0.781156  -0.501894  -0.080828 
Mo   8.411102   7.963707  16.667916   0.027794  -0.033017   0.287566 
S    7.481015   6.418553  18.308245  -0.405858  -0.143268  -0.349743 
S   10.218585   7.887711  18.261944   0.482658   0.447501   0.460796 
S   10.314153   7.909922  15.115954  -0.319638   0.093997  -0.159003 
S    7.473970   6.407661  15.070035  -0.250777  -0.193050   0.052420 
Mo  11.228155   6.311970  16.729362  -0.932618   0.487247  -0.754902 
Mo  13.924024   7.913255  16.736981   0.372214   0.565138  -0.787461 
S   13.062794   6.328406  18.250612  -0.295203  -0.392286   1.195890 
S   15.748956   7.838712  18.317369   0.510140   0.485488  -0.011496 
S   15.794153   7.953682  15.138992  -0.055252   0.154311  -0.140394 
S   12.981439   6.360244  15.075991   0.506405  -0.063390   0.117671 
Mo  16.735039   6.322544  16.652049  -0.828678  -0.127186   0.714593 
Mo  19.448737   7.950658  16.813862   0.119503   0.052456  -0.596118 
S   18.528103   6.309310  18.332531  -0.202661   0.027773   0.006300 
S   21.255629   7.938166  18.427772  -0.010197   0.217148   0.010827 
S   21.300573   7.957037  15.205759  -0.098655   0.101315   0.129832 
S   18.592712   6.357115  15.143732   0.180952   0.152531  -0.299495 
Mo  22.182877   6.369811  16.818649   0.382255  -0.394057   0.683173 
Mo  24.943045   7.959892  16.828243   0.729382  -0.246364   0.189031 
S   24.042755   6.395906  18.503322  -0.250008  -0.272196  -0.800140 
S   26.817644   7.941603  18.435936  -0.021658   0.318805   0.125202 
S   26.849616   7.904167  15.279740   0.207073   0.271047   0.066333 
S   24.032173   6.378802  15.243061   0.346918  -0.499017   0.251652 
Mo  27.772825   6.348695  16.910081  -0.281952  -0.600775   0.454254 
Mo  30.631986   7.924631  16.898204  -0.026341   0.995223   0.070606 
S   29.622651   6.374026  18.517556   0.148824   0.124323   0.018066 
S   32.470599   7.892434  18.486236   0.143841   0.525110  -0.023374 
S   32.527749   7.925732  15.248282  -0.825365   0.657783   0.306445 
S   29.618760   6.374258  15.378411   0.177483  -0.152812  -0.864312 
Mo   0.061739   9.516078  16.864145   0.151700   0.289843   0.206898 
Mo   2.835199  11.160147  16.914856   0.053387  -0.313719  -0.912432 
S    1.936470   9.499192  18.454843   0.027604  -0.202707  -0.210498 
S    4.737900  11.131402  18.352663   0.382553  -0.283772   0.551953 
S    4.663063  11.197887  15.219663  -0.051694   0.088075   0.285146 
S    1.944415   9.565370  15.272152  -0.419966   0.124504   0.110465 
Mo   5.675268   9.535331  16.699515  -0.556154   0.659098   0.779358 
Mo   8.359247  11.147777  16.728867   0.709230   0.083011  -0.070295 
S    7.497362   9.521846  18.355298   0.052213   0.112304  -0.659335 
S   10.262445  11.102633  18.257831  -0.111163   0.401789   0.399092 
S   10.265783  11.212988  15.132427  -0.388063  -0.689604  -0.245267 
S    7.510015   9.550043  15.078421  -0.213637   0.414638   0.113351 
Mo  11.171955   9.536029  16.696910   0.243652  -0.236639   0.091781 
Mo  13.894427  11.115707  16.783945   0.903155   0.612259  -0.050101 
S   12.993223   9.518621  18.359788  -0.241549  -0.277100  -0.154091 
S   15.738641  11.145133  18.364977   0.065905  -0.154327   0.151756 
S   15.770032  11.163210  15.247261   0.104549  -0.034396  -0.437664 
S   13.060885   9.552728  15.162307  -0.424569  -0.122209  -0.456904 
Mo  16.689126   9.531601  16.780782   0.014608   0.008289   0.006959 
Mo  19.409303  11.169361  16.808319   0.091820   0.532234   0.322705 
S   18.500001   9.564116  18.381063  -0.005861  -0.144570   0.369094 
S   21.253785  11.207888  18.350525   0.091395  -0.247361   0.642610 
S   21.284372  11.186950  15.237627  -0.090060  -0.197198  -0.271557 
S   18.581880   9.594448  15.211152  -0.456047  -0.450194  -0.166945 
Mo  22.171189   9.558597  16.823379   0.980891   0.117838  -0.179178 
Mo  25.042905  11.090323  16.839560  -0.223574   0.872555  -0.090466 
S   24.045961   9.504909  18.430992  -0.285759   0.472141  -0.014872 
S   26.872189  11.172715  18.462553   0.382428  -0.779555  -0.279684 
S   26.907079  11.136404  15.258284   0.182602  -0.378851   0.103033 
S   24.100942   9.598085  15.212022  -0.550236  -0.520906   0.185057 
Mo  27.863433   9.516446  16.858978  -0.745054   0.592643   0.159016 
Mo  30.626355  11.231446  16.868694   0.245650  -0.941586   0.055436 
S   29.707224   9.592314  18.478239   0.034144  -0.122292  -0.367141 
S   32.466900  11.216398  18.511736  -0.062093  -0.429896  -0.446575 
S   32.563591  11.241253  15.331542  -0.823531  -0.584085  -0.380454 
S   29.746135   9.549127  15.280651  -0.058213   0.150224   0.309618 
Mo   0.066488  12.780527  16.878248   0.713578  -0.455574   0.418332 
Mo   2.828126  14.350607  16.872701  -0.014880   0.055283   1.157192 
S    1.897660  12.754657  18.518478   0.163145   0.016045  -0.325380 
S    4.708866  14.376697  18.457614  -0.030398  -0.328277   0.036470 
S    4.595391  14.404147  15.274304   0.888048  -0.322302  -0.239596 
S    1.935578  12.749447  15.297286  -0.189005  -0.043873  -0.087214 
Mo   5.631514  12.779389  16.831126  -0.138783   0.330685   0.033227 
Mo   8.443830  14.317819  16.826949  -0.378975   0.301134  -0.757320 
S    7.555895  12.719501  18.432660  -0.607395  -0.118085  -0.447385 
S   10.314464  14.276566  18.384268  -0.045975   0.100893  -0.399527 
S   10.284718  14.376639  15.147190  -0.395220  -0.241594   0.284958 
S    7.386052  12.787171  15.178186   0.525943   0.185433   0.254754 
Mo  11.243312  12.725118  16.693990  -0.524717   0.759700   0.426253 
Mo  13.976923  14.383282  16.793492  -0.350338  -1.081494  -0.276977 
S   12.995106  12.728995  18.374693   0.335127   0.147058  -0.325938 
S   15.791538  14.366778  18.414394  -0.172988   0.261925   0.173216 
S   15.826540  14.449699  15.177735  -0.111525  -0.535434   0.211907 
S   13.141437  12.706254  15.086531  -0.450866   0.455437   0.920278 
Mo  16.664385  12.805166  16.810509   0.475078  -0.268335  -0.594509 
Mo  19.526564  14.339696  16.824474  -1.138134   0.491604   0.154833 
S   18.429539  12.795172  18.461375   0.859178  -0.220581  -0.662038 
S   21.303996  14.325198  18.443349   0.446375   0.159733   0.151045 
S   21.380118  14.388053  15.225329  -0.117658   0.290730  -0.101055 
S   18.555200  12.760019  15.189052  -0.238488   0.304915   0.414526 
Mo  22.219451  12.797061  16.792062   0.872708  -0.644251   0.608562 
Mo  25.077023  14.364378  16.893654  -0.193896  -0.429556  -0.283137 
S   24.114765  12.676870  18.406843  -0.284934   0.489780  -0.033557 
S   26.927082  14.337886  18.448385   0.063813  -0.021034   0.132308 
S   26.898290  14.402256  15.242973   0.043104  -0.470884   0.440525 
S   24.100462  12.742437  15.226962   0.487390   0.213498   0.577097 
Mo  27.827303  12.723452  16.842246  -0.330816   0.873170  -0.145587 
Mo  30.570914  14.399858  16.897228   1.041376  -0.046861  -1.007528 
S   29.649046  12.807340  18.441072   0.113027  -0.216958   0.432500 
S   32.491140  14.391581  18.469779  -0.534652   0.383218   0.222448 
S   32.498858  14.372823  15.309082  -0.531132   0.368166  -0.219804 
S   29.674545  12.799074  15.265022   0.160436  -0.015320  -0.059025 
Mo   0.124338  15.941341  16.831704  -0.776926   0.458696   0.764110 
Mo   2.814211  17.503016  16.922771  -0.221324   0.610969  -0.505818 
S    1.900826  15.921052  18.545477   0.049064  -0.076682  -0.677066 
S    4.669992  17.541432  18.440948   0.416757  -0.010066   0.848235 
S    4.672114  17.590014  15.348454  -0.038147  -0.142695  -0.551579 
S    1.959278  15.936484  15.280605  -0.195651   0.012537  -0.390281 
Mo   5.616866  15.956270  16.855128   0.287670  -0.233104   0.046186 
Mo   8.351378  17.585198  16.875852   1.012850  -0.269085  -0.824648 
S    7.499119  15.896257  18.446551  -0.010456   0.320095  -0.119524 
S   10.290775  17.652833  18.391467  -0.429200  -0.994197   0.107049 
S   10.270482  17.601262  15.212667  -0.865521  -0.352065   0.223772 
S    7.478196  15.948767  15.232739  -0.033685   0.048537   0.635792 
Mo  11.150251  15.946182  16.778650   0.666151   0.171820   0.247526 
Mo  13.882721  17.614223  16.794505   0.716336  -1.276051   0.820937 
S   12.977271  15.906314  18.400532   0.148231   0.752085  -0.337064 
S   15.799743  17.537131  18.409095  -0.447196   0.564112  -0.065381 
S   15.765192  17.516909  15.256697   0.295245   0.813376  -0.058901 
S   13.061071  15.912185  15.173015  -0.609750   0.713336   0.393213 
Mo  16.727769  15.962687  16.826983   0.831087  -0.162500   0.247161 
Mo  19.512707  17.564383  16.860066  -0.223417   0.177203   0.804759 
S   18.602140  15.930724  18.507845  -0.200898   0.154138  -1.186126 
S   21.369455  17.503436  18.493562  -0.335103   0.147664  -0.010079 
S   21.345254  17.530212  15.300521   0.457897   0.354472  -0.055783 
S   18.632176  15.973206  15.210746  -0.378593  -0.083911   0.646946 
Mo  22.292399  15.949565  16.884621   0.060475  -0.145421   0.422504 
Mo  25.099061  17.637532  17.008846  -0.869160  -0.350452  -0.521902 
S   24.155962  15.946002  18.534200  -0.145504  -0.030998  -0.219201 
S   26.925206  17.555421  18.545300   0.470440  -0.009726  -0.130419 
S   26.868104  17.639956  15.327614   0.140836  -0.269782   0.088311 
S   24.220226  16.056452  15.421748  -0.375505  -0.081476  -0.839890 
Mo  27.851269  15.954443  16.863977  -0.396311   0.823447   0.087984 
Mo  30.604408  17.579389  16.845096  -0.087120   0.264871   0.644903 
S   29.694995  15.974725  18.459872  -0.084695   0.300123   0.288302 
S   32.521193  17.599649  18.455785  -0.610233  -0.016778  -0.077411 
S   32.483061  17.673641  15.346508   0.024504  -0.838478  -0.977666 
S   29.681935  16.004160  15.236475   0.039880  -0.234232   0.278892 
Mo   0.034988  19.214275  16.854223   0.145780   0.340859   0.341174 
Mo   2.880155  20.692035  16.823501  -0.522190   1.053260   0.131908 
S    1.884856  19.169051  18.447045   0.048837  -0.022540   0.214672 
S    4.674981  20.756005  18.441827   0.149697   0.298198   0.575955 
S    4.725636  20.683678  15.192674  -0.076263   0.346246   0.662206 
S    1.889292  19.115009  15.273654   0.207031  -0.137842   0.006998 
Mo   5.606961  19.184459  16.918408  -0.030164  -0.540577  -0.938091 
Mo   8.347419  20.815924  16.796578   0.798073  -0.605755  -0.012014 
S    7.487828  19.221163  18.434266  -0.062055  -0.097676   0.500316 
S   10.236271  20.800938  18.326953  -0.102199   0.636997   0.230655 
S   10.191281  20.719696  15.149143  -0.236550   0.395532   0.005950 
S    7.393472  19.143165  15.258465   0.215091   0.212957   0.170059 
Mo  11.151920  19.197558  16.788317   0.022793   0.304179  -0.588026 
Mo  13.962002  20.829147  16.759070  -0.253913  -0.334156  -0.495806 
S   12.965795  19.294000  18.338837   0.624506  -0.401045   0.613928 
S   15.801684  20.896627  18.333346   0.062966  -0.467125   0.347183 
S   15.904945  20.765913  15.201164  -0.660154  -0.140266  -0.191900 
S   12.980430  19.139791  15.204108   0.365681   0.773638  -0.371661 
Mo  16.743938  19.183749  16.843766   0.014637  -0.158308  -0.098653 
Mo  19.505327  20.809385  16.846576  -0.103050  -0.482321   0.247478 
S   18.598232  19.238749  18.485465  -0.275862  -0.587422  -0.584687 
S   21.320733  20.729412  18.486306  -0.082077   0.759372   0.228197 
S   21.378017  20.798145  15.354714   0.325477  -0.099427  -0.486279 
S   18.619985  19.191946  15.256000  -0.196990  -0.295074   0.179742 
Mo  22.265421  19.156183  16.937186  -0.173794   0.012934  -0.504566 
Mo  25.056653  20.857733  16.965015  -0.344587   0.164574   0.081478 
S   24.090528  19.257675  18.514827   0.233619  -0.186835   0.654644 
S   26.885004  20.790171  18.609893   0.048614   0.168452  -0.526788 
S   26.889764  20.845604  15.355834  -0.157826   0.200272   0.051356 
S   24.111252  19.221793  15.394035   0.444078  -0.050829  -0.168945 
Mo  27.776126  19.216341  16.925363   0.519490  -0.210242   0.566577 
Mo  30.588079  20.795650  16.848969  -0.433043  -0.184947   0.942277 
S   29.685918  19.170278  18.455649   0.067711   0.087028   0.041281 
S   32.380719  20.889740  18.463305   0.614617  -0.457791  -0.058319 
S   32.400703  20.859777  15.242600   0.268729  -0.505477   0.000566 
S   29.585190  19.220612  15.296973   0.320683  -0.418373  -0.175416 
Mo   0.076952  22.349602  16.792984  -0.028074   0.587657   0.970672 
Mo   2.804341  23.984912  16.791344   0.584146  -0.466436  -0.160245 
S    1.936480  22.383851  18.426551   0.029801  -0.292902  -0.462125 
S    4.750171  24.059307  18.338852  -0.493562  -0.393471   0.120916 
S    4.677447  23.889578  15.265886   0.170481   0.497139  -0.606012 
S    1.923464  22.281743  15.224704   0.292133   0.227612   0.036440 
Mo   5.644155  22.318106  16.836528  -0.413696   0.600679  -0.413681 
Mo   8.374570  24.073037  16.750255   0.507392  -0.835663  -0.104938 
S    7.475473  22.431805  18.416316   0.337600   0.231938  -0.120582 
S   10.303147  24.070948  18.252862  -0.485003  -0.124147   0.460297 
S   10.249013  24.096166  15.124499  -0.449553  -0.393906  -0.388029 
S    7.499327  22.391881  15.224006  -0.560822   0.233018  -0.343767 
Mo  11.095791  22.421018  16.671558   1.180091  -0.438264   0.227096 
Mo  13.939289  23.986921  16.671627   0.048497   0.088954  -0.148402 
S   12.948399  22.463161  18.297181   0.120353  -0.398394  -0.165286 
S   15.742759  24.059829  18.299177   0.381182  -0.066930  -0.225508 
S   15.819175  23.999823  15.078747   0.074588  -0.058384   0.282246 
S   13.031388  22.341188  15.120773  -0.368846   0.205903  -0.184907 
Mo  16.740108  22.443649  16.725265   0.088393  -0.058114  -0.100608 
Mo  19.537010  23.997550  16.744817   0.348191   0.387256   0.893145 
S   18.527888  22.418783  18.341804   0.257140   0.489200   0.374270 
S   21.324928  24.023611  18.465537  -0.382506   0.631878  -0.148246 
S   21.524860  24.005200  15.263787  -0.785126   0.187022  -0.053816 
S   18.678794  22.377593  15.187496  -0.521780   0.087684  -0.322558 
Mo  22.252705  22.443983  16.935580   1.009014  -0.930537  -0.413688 
Mo  25.013201  24.109611  16.962718   0.256764  -0.589955  -0.263162 
S   24.067489  22.516634  18.534092   0.333642  -0.427521   0.077000 
S   26.915967  24.116062  18.549939  -0.446934  -0.521873   0.270343 
S   26.900100  24.101822  15.448232  -0.273838  -0.875271  -1.088471 
S   24.157962  22.417212  15.319940  -0.187957   0.496613   0.628698 
Mo  27.785521  22.430520  16.992673   0.124098  -0.160787   0.058939 
Mo  30.681754  23.984481  16.876653  -1.401126  -0.043519  -0.517074 
S   29.663383  22.345846  18.532591   0.525838   0.495841  -0.521654 
S   32.486994  24.019234  18.439704   0.543154  -0.088444  -0.129070 
S   32.530266  23.968625  15.237894  -0.638894   0.446855  -0.072863 
S   29.598146  22.354347  15.359107   0.028367   0.873081  -0.490842 
