288
Lattice="33.328113 0.035002 0.030858 0.026933 25.657351 -0.000664 0.027082 9e-05 30.48811 " PBC="1 1 1" Properties="species:S:1:pos:R:3:force:R:3" Energy=" -5.284588"
Mo  -0.003074  -0.066427  16.889907  -0.688100  -0.304464  -0.470494 
Mo   2.750803   1.478541  16.837156   0.231258   0.688094  -0.532214 
S    1.845069  -0.112046  18.368020   0.599730  -0.253054   1.168010 
S    4.679003   1.434912  18.336771   0.232336   0.280259  -0.036812 
S    4.557671   1.492126  15.209248   0.289905   0.153936  -0.311915 
S    1.801805  -0.111080  15.280985   0.066441  -0.000067  -0.573838 
Mo   5.597615  -0.141138  16.696798  -0.689887  -0.070879   0.447876 
Mo   8.433108   1.522934  16.621641  -0.483364  -0.232602   0.624561 
S    7.503592  -0.059270  18.234818  -0.104595  -0.143450   0.187894 
S   10.283633   1.573648  18.224827  -0.091049  -0.527069  -0.154176 
S   10.261189   1.498834  15.026752   0.096697  -0.071606  -0.099759 
S    7.406623  -0.117379  15.137893   0.431559   0.064586  -1.035816 
Mo  11.223821  -0.095451  16.655130  -0.919475   0.490819   0.859722 
Mo  13.923286   1.555269  16.709430   0.862157   0.478946   0.357503 
S   13.040280  -0.036116  18.332307  -0.546702   0.019060  -0.225516 
S   15.760773   1.631295  18.377974  -0.459569  -0.083988  -0.144290 
S   15.862138   1.584898  15.146090  -0.806616  -0.456605  -0.198989 
S   13.092340  -0.042986  15.131396  -0.304623  -0.324403  -0.589097 
Mo  16.674331   0.017295  16.822458   0.205047  -0.455210  -0.483988 
Mo  19.414535   1.587995  16.840075   1.416505  -0.977599   0.892874 
S   18.444529  -0.070691  18.435095   0.813503   0.167133  -0.232235 
S   21.255403   1.520495  18.456300   0.112155   0.819708   0.249377 
S   21.316149   1.545751  15.292940   0.363946  -0.011475   0.034819 
S   18.607126   0.038687  15.270834  -0.738156  -0.810600  -0.722050 
Mo  22.281821  -0.026282  16.936703  -0.402129  -0.112496  -0.830682 
Mo  25.077804   1.569467  16.899116  -0.157033  -0.592071  -0.054038 
S   24.106934   0.024163  18.520910   0.192444  -0.398427  -0.007421 
S   26.904280   1.518610  18.503656  -0.049232   0.032602   0.303049 
S   26.992657   1.512482  15.340004  -0.690144  -0.271511  -0.241295 
S   24.113940  -0.092793  15.322631   0.419183   0.451208   0.234668 
Mo  27.832587  -0.110237  16.956285   0.241202  -0.216166  -0.087950 
Mo  30.558778   1.542891  16.955574  -0.402472  -0.185757  -0.649988 
S   29.708067  -0.105846  18.569913  -0.304742  -0.137659  -0.418697 
S   32.382571   1.551028  18.506432   0.419620   0.439992   0.366372 
S   32.337321   1.576412  15.334718   0.514263   0.164419   0.085719 
S   29.753887  -0.167047  15.349373  -0.800576   0.420107   0.427373 
Mo  -0.002630   3.165699  16.901767  -0.563351  -0.840307  -0.369157 
Mo   2.790672   4.684662  16.839809  -0.697805  -0.018195  -0.887855 
S    1.850544   3.073154  18.436341   0.335640   0.271857   0.314155 
S    4.628218   4.658569  18.338377   0.799938   0.344146   0.566179 
S    4.564067   4.710635  15.204213   0.502178   0.131935  -0.203813 
S    1.815784   3.090191  15.212721  -0.145220   0.085324   0.684006 
Mo   5.572168   3.115995  16.738974   0.379128  -0.842744   0.384616 
Mo   8.375830   4.752845  16.671650  -0.547173   0.142687  -0.710235 
S    7.573848   3.099584  18.278855  -0.774002   0.063952  -0.248323 
S   10.217193   4.735438  18.184747   0.421225   0.463128   0.228684 
S   10.174264   4.827659  15.010497   0.246069  -0.465306   0.355130 
S    7.407049   3.109912  15.118490  -0.030301   0.243102  -0.377690 
Mo  11.138168   3.143406  16.600782   0.383926   0.388048  -0.363054 
Mo  13.883826   4.775838  16.641354   0.659887  -0.115048  -0.620166 
S   12.960870   3.231040  18.248099  -0.085611  -0.387577  -0.068354 
S   15.775463   4.851664  18.187571  -0.410397  -0.295227   0.531597 
S   15.793451   4.782508  15.049955  -0.021689  -0.373342   0.376339 
S   13.022412   3.080139  15.027797  -0.043641   0.620364   0.411152 
Mo  16.691252   3.141942  16.730194   0.078332   1.138646  -0.170638 
Mo  19.459201   4.750096  16.783336   1.091638  -0.510486   0.027641 
S   18.487839   3.140338  18.366671  -0.139189   0.677722   0.600510 
S   21.368917   4.795191  18.354809  -0.887564  -0.325974   0.544544 
S   21.421630   4.734172  15.154946  -0.578660  -0.129701   0.901127 
S   18.592655   3.089962  15.212014  -0.252171   0.794118  -0.537522 
Mo  22.280574   3.136503  16.860020   0.153093   0.107039  -0.366358 
Mo  25.032322   4.725772  16.935990  -0.343930   0.503688   0.109528 
S   24.084773   3.130655  18.543358   0.051856  -0.100700  -0.590509 
S   26.870018   4.704977  18.527766   0.121568   0.418207  -0.063477 
S   26.829684   4.835925  15.340639   0.542466  -0.868828  -0.048279 
S   24.224602   3.176928  15.295619  -0.770794  -0.448570   0.018090 
Mo  27.800970   3.119213  16.930039  -0.375362   0.812899  -0.234669 
Mo  30.504118   4.789734  16.914166   0.670950  -0.593899  -0.127251 
S   29.629373   3.171665  18.494996   0.070446  -0.145513   0.476704 
S   32.372950   4.812505  18.562523   0.134963  -0.205946  -0.781119 
S   32.343892   4.764212  15.359942   0.138939  -0.036841  -0.709462 
S   29.556532   3.126949  15.313720   0.741743   0.114879   0.105214 
Mo   0.040528   6.290943  16.832792  -0.621265   0.826458   0.203961 
Mo   2.742590   7.941766  16.858560   0.034403  -0.244542  -0.959671 
S    1.875325   6.290969  18.413183   0.103789   0.197272   0.434236 
S    4.619158   7.883273  18.345048   0.514344   0.696893   0.414060 
S    4.591258   7.941767  15.213557  -0.045176   0.069303   0.210183 
S    1.896864   6.318536  15.204641  -0.233870  -0.051298   0.657528 
Mo   5.592102   6.326387  16.766103  -0.772108  -0.405648  -0.409967 
Mo   8.344740   8.011641  16.705292  -0.341917  -0.717655   0.375629 
S    7.466347   6.311545  18.301046   0.187167   0.516262  -0.061737 
S   10.226354   7.990448  18.309873  -0.274512  -0.224898  -0.606791 
S   10.113169   8.034816  14.995332   0.191213  -0.371018   0.702353 
S    7.357167   6.358615  15.076961   0.350467   0.183387   0.646353 
Mo  11.125394   6.426303  16.615061  -0.381726  -0.394379  -0.311588 
Mo  13.933504   8.028228  16.667782  -0.214243  -0.813695  -0.141302 
S   12.914434   6.333663  18.222208   0.587397   0.781164   0.062185 
S   15.817636   8.020138  18.242199  -0.308325  -0.171870  -0.012253 
S   15.783342   8.000314  15.050878   0.055057   0.276836   0.077230 
S   13.061448   6.406922  15.052997  -0.669549   0.076850   0.063606 
Mo  16.721478   6.400827  16.611750   0.047414  -0.057898   0.490242 
Mo  19.480097   7.975126  16.743406  -0.188412  -0.608565  -0.745322 
S   18.491478   6.378529  18.314552   0.053020  -0.037151  -0.015783 
S   21.266249   8.009087  18.337234   0.184997   0.037480   0.469910 
S   21.380693   7.960377  15.189757  -0.386708  -0.035228  -0.425574 
S   18.663703   6.270090  15.147794  -0.443094   0.802804  -0.549837 
Mo  22.230503   6.377316  16.811710   0.741868  -0.170922  -0.039065 
Mo  24.993293   7.974955  16.930288  -0.146669  -0.103693  -0.156893 
S   24.066134   6.293912  18.516788  -0.236879   0.773524  -0.498411 
S   26.851952   7.978912  18.556275  -0.007165   0.108027  -0.502650 
S   26.861720   7.997897  15.349372  -0.010966  -0.024816  -0.000539 
S   24.100256   6.325444  15.292872   0.553989   0.392719   0.282168 
Mo  27.770225   6.388462  16.931948  -0.068534  -0.210496   0.595900 
Mo  30.578059   8.001151  16.894298  -0.215926  -0.354526  -0.238157 
S   29.655621   6.372601  18.487490  -0.296654   0.435482   0.349729 
S   32.379654   7.889703  18.465463   0.700735   0.432021   0.257708 
S   32.453977   8.029352  15.308098  -0.354732  -0.832495  -0.261437 
S   29.582169   6.398686  15.338945   0.182027  -0.007482  -0.399507 
Mo  -0.013795   9.538294  16.876244   0.395642   0.074429  -0.415837 
Mo   2.804929  11.111336  16.793155  -0.325878   0.841627   0.305181 
S    1.812699   9.604087  18.438812   0.558353  -0.544476   0.162872 
S    4.686818  11.220337  18.390620  -0.178408  -0.061630  -0.519645 
S    4.589771  11.161521  15.146352   0.249968   0.040113   0.161387 
S    1.783317   9.522076  15.216242   0.344005   0.008452   0.448411 
Mo   5.542095   9.606276  16.764398  -0.200137  -0.740146   0.245001 
Mo   8.356404  11.221975  16.748960  -0.646639   0.153080  -0.143064 
S    7.371900   9.642702  18.335484   0.592449  -0.594224  -0.032546 
S   10.233741  11.174304  18.294554   0.118321   0.004027  -0.238892 
S   10.126311  11.161047  15.098065   0.285005   0.233286  -0.081668 
S    7.386178   9.628887  15.208925  -0.161795  -0.067358  -0.692506 
Mo  11.084500   9.548828  16.653556  -0.079956   0.767009   0.155644 
Mo  13.907466  11.224302  16.627851   0.001102  -0.062010   0.023113 
S   12.934168   9.586031  18.210979   0.436240   0.387523   0.338089 
S   15.802590  11.170000  18.189633  -0.478330   0.327454   0.542118 
S   15.782390  11.200223  15.010017   0.072848  -0.082783   0.522576 
S   12.921319   9.604020  15.080821   0.424101  -0.061779  -0.226824 
Mo  16.743664   9.605256  16.660060  -0.792030  -0.433478  -0.752874 
Mo  19.451473  11.176650  16.680137   0.022480   0.701392   0.053235 
S   18.553278   9.575015  18.275709  -0.171997   0.346233   0.418404 
S   21.199118  11.193187  18.332180   0.352106  -0.110847   0.125688 
S   21.357100  11.155249  15.134591  -0.174167   0.698308  -0.184868 
S   18.556721   9.534131  15.101069   0.491448   0.234694  -0.277609 
Mo  22.188613   9.614891  16.744360   0.801169  -0.536712   0.685522 
Mo  25.019983  11.185758  16.920514   0.089388   0.351890  -0.768598 
S   23.945084   9.620406  18.438115   0.428944  -0.293751   0.131533 
S   26.830944  11.113244  18.494806   0.430953   0.839125   0.133257 
S   26.969195  11.126871  15.313022  -0.720863   0.752909   0.255203 
S   24.137510   9.596154  15.259418   0.103429  -0.041602   0.361933 
Mo  27.850119   9.576091  16.920403  -0.365062  -0.228229   0.479077 
Mo  30.624175  11.203197  16.941257  -0.784259  -0.178962  -0.462541 
S   29.700372   9.579369  18.525215  -0.122668   0.185615  -0.064757 
S   32.420229  11.124930  18.471762   0.624297   1.042872   0.680955 
S   32.418738  11.172605  15.271355   0.027974   0.222018   0.326247 
S   29.692576   9.645163  15.317584  -0.057544  -0.302021  -0.070256 
Mo   0.047938  12.759594  16.823883  -0.457181  -0.076469   0.684865 
Mo   2.835853  14.356060  16.737439   0.017841   0.321565   0.485202 
S    1.926102  12.782811  18.372432   0.155981  -0.180153  -0.050951 
S    4.762101  14.424621  18.328158  -0.791237  -0.336576  -0.241661 
S    4.666031  14.379125  15.115147  -0.228933   0.041592  -0.221023 
S    1.852912  12.694350  15.205030   0.120401   0.267490  -0.074557 
Mo   5.580659  12.813671  16.711427   0.048023  -0.716955   0.237941 
Mo   8.354277  14.377828  16.722176   0.717673  -0.331080   0.444097 
S    7.397362  12.779409  18.363910   0.332106   0.414941  -0.520394 
S   10.297692  14.370853  18.280341  -0.711294   0.022724   0.031837 
S   10.218053  14.403242  15.092774  -0.213828  -0.149491   0.022357 
S    7.430341  12.835049  15.085417  -0.000578  -0.540234   0.539270 
Mo  11.125041  12.790781  16.648395   0.757606  -0.343067   0.384780 
Mo  13.902911  14.436933  16.586320   0.537919   0.008180   0.608681 
S   13.027417  12.840498  18.269968  -0.175310  -0.088149  -0.795252 
S   15.739004  14.405893  18.191844   0.083875   0.071225  -0.039978 
S   15.862888  14.358153  14.996836  -0.593753   0.752433   0.603301 
S   12.974277  12.843974  15.011204  -0.138709  -0.360356   0.301360 
Mo  16.708319  12.794357  16.648539   0.327603   0.218555  -0.727861 
Mo  19.475827  14.453489  16.763522   0.006566  -0.118009  -0.356374 
S   18.477977  12.856301  18.312536   0.344554  -0.544052  -0.379537 
S   21.364922  14.382990  18.335658  -0.426953   0.358980   0.296824 
S   21.353816  14.479909  15.230545   0.265807  -0.826298  -0.354791 
S   18.641481  12.837198  15.055875  -0.420029   0.050254   0.828831 
Mo  22.251789  12.767060  16.802022   0.000841   0.451465  -0.253272 
Mo  25.009833  14.496110  16.894277   1.004299  -0.728803   0.659138 
S   24.051544  12.811547  18.532192   0.112511   0.223541  -1.027041 
S   26.904968  14.493724  18.499322  -0.362323  -0.507696  -0.128308 
S   26.918137  14.383497  15.322557  -0.078198   0.632896  -0.049240 
S   24.169753  12.866246  15.316893  -0.093700  -0.576198  -0.220841 
Mo  27.799536  12.830780  16.925071  -0.301633  -0.978540   0.453129 
Mo  30.629571  14.442756  17.008657  -0.115994  -0.261477  -0.370809 
S   29.645907  12.807735  18.493984   0.120184  -0.009592   0.768537 
S   32.496370  14.408918  18.548964   0.334304  -0.250070  -0.245667 
S   32.431264  14.478767  15.361796   0.058815  -0.451093  -0.138877 
S   29.689703  12.851129  15.430619   0.082262   0.059435  -0.678752 
Mo   0.073793  16.007107  16.908666   0.293216  -0.836477   0.671258 
Mo   2.812080  17.585706  16.790674  -0.286097  -0.396815  -0.123380 
S    1.989495  15.944035  18.425182  -0.039616   0.027546  -0.275866 
S    4.703419  17.583723  18.314792  -0.152312  -0.354889   0.246119 
S    4.579935  17.543410  15.100370  -0.004196  -0.077086  -0.017931 
S    1.794712  15.973247  15.193350   0.565508   0.003281   0.353354 
Mo   5.591260  15.985257  16.688878   0.478735  -0.076979  -0.078395 
Mo   8.382691  17.528389  16.679506  -0.199033   0.120766   0.240126 
S    7.443408  15.973369  18.318076   0.077347  -0.017299  -0.249489 
S   10.231713  17.588312  18.303710   0.105999   0.057895  -0.441398 
S   10.163209  17.576985  15.097756   0.778431  -0.073956  -0.276499 
S    7.513292  15.908725  15.087093  -0.850654   0.478404   0.054531 
Mo  11.159630  15.979698  16.691117   0.070567   0.721165  -0.067789 
Mo  13.962282  17.633980  16.679693   0.293710  -0.897165  -0.277212 
S   13.029137  16.068627  18.304570   0.023569  -0.589235  -0.810533 
S   15.789315  17.621948  18.283304   0.205640  -0.025282  -0.079989 
S   15.888594  17.660629  15.144428  -0.951289  -0.265144  -1.076750 
S   12.977995  16.073164  15.030946   0.145655  -0.073592   0.402200 
Mo  16.740001  16.038683  16.650826   0.213365  -0.521696   0.364303 
Mo  19.555413  17.653089  16.723509  -1.300141  -0.873213  -0.198766 
S   18.515428  16.082551  18.365596   0.296468  -0.169770  -0.950982 
S   21.307048  17.607463  18.375261   0.542045   0.114329  -0.186355 
S   21.434544  17.576220  15.178099  -0.182196   0.411919  -0.379298 
S   18.625130  16.043111  15.054999   0.053450   0.109576   0.950842 
Mo  22.332685  16.026215  16.787180  -0.592810   0.220869   0.962816 
Mo  25.034896  17.669406  16.873305   1.128407  -0.810130  -0.130116 
S   24.118376  16.104696  18.495154  -0.272383  -0.243446  -0.323530 
S   26.887245  17.578018  18.531903   0.135734   0.408975  -0.737536 
S   26.973245  17.619581  15.327944  -0.344610  -0.180006  -0.407275 
S   24.186551  16.056633  15.239963   0.036911   0.141156  -0.054690 
Mo  27.896777  16.027575  16.912922  -0.775149  -0.223321   0.069546 
Mo  30.693750  17.551265  16.997238  -0.892063   0.563009  -0.224770 
S   29.668184  16.026142  18.600944   0.324737  -0.286466  -0.059448 
S   32.504469  17.594220  18.599288   0.281299   0.023742   0.122934 
S   32.513956  17.603964  15.398051  -0.321592   0.497515  -0.548557 
S   29.773799  16.020777  15.371123  -0.228494  -0.272507  -0.207053 
Mo   0.072223  19.169442  16.958359  -0.006910  -0.118653  -0.369814 
Mo   2.845772  20.716580  16.851117  -0.181768   0.761655  -0.618612 
S    1.954540  19.193949  18.461437   0.115578  -0.703404   0.312307 
S    4.708679  20.737117  18.312935   0.726125  -0.229660   0.219501 
S    4.659479  20.715481  15.166217  -0.546090   0.133741  -0.373595 
S    1.811720  19.209421  15.243133   0.178536  -0.326681   0.139705 
Mo   5.554283  19.085873  16.681668   1.227396   1.241333  -0.032327 
Mo   8.399585  20.748468  16.669431  -0.221401  -0.130756  -0.212131 
S    7.459830  19.126071  18.219290  -0.093573   0.263819   0.456503 
S   10.242350  20.800960  18.265624   0.117323  -0.340830  -0.177011 
S   10.267459  20.812663  15.065860  -0.232242  -0.478570  -0.159343 
S    7.454089  19.113147  15.054124  -0.230062   0.205798   0.451678 
Mo  11.155499  19.176603  16.653934   0.718050   0.227065   0.474383 
Mo  14.001075  20.817094  16.698230  -0.622372   0.243612  -0.368965 
S   13.097084  19.190424  18.260723  -0.919689   0.247324   0.153949 
S   15.806949  20.877366  18.279699   0.227147  -0.317646   0.594184 
S   15.843523  20.883808  15.109038   0.133484   0.207851   0.024973 
S   13.103774  19.192364  15.092592  -0.705500   0.400846  -0.159602 
Mo  16.708726  19.249977  16.690489   0.812115  -0.046184   0.564558 
Mo  19.468612  20.821571  16.738691   0.423831  -0.565057   0.071558 
S   18.513416  19.158652  18.342802   0.304025   0.729612  -0.553940 
S   21.326735  20.720537  18.356362  -0.302270   0.365869   0.137317 
S   21.384927  20.867506  15.207567   0.061581  -0.289802   0.074399 
S   18.545668  19.178428  15.054687   0.551711   0.612204   0.931551 
Mo  22.314063  19.192272  16.765678  -0.527803   0.120289  -0.089285 
Mo  25.033138  20.785488  16.875418   0.126809   0.513709   0.290642 
S   24.076342  19.243841  18.409526  -0.150136  -0.396576   0.668792 
S   26.853736  20.706159  18.542128   0.265371   0.125162  -0.469502 
S   26.904440  20.849477  15.393533   0.637981  -0.536854  -0.515790 
S   24.199471  19.217668  15.200253  -0.236931   0.123383   0.060369 
Mo  27.914683  19.148963  16.892761  -1.170292   0.543802   0.954127 
Mo  30.541343  20.706842  17.023876   0.957974   0.964868   0.267761 
S   29.661563  19.073317  18.575904   0.192217   0.304166   0.128312 
S   32.522493  20.783798  18.574955  -0.570830   0.393289   0.058292 
S   32.415439  20.832020  15.481546  -0.020848  -0.263972  -0.761320 
S   29.774611  19.096229  15.308448  -0.085832   0.368473   0.570850 
Mo   0.125178  22.383484  16.920793  -0.302345   0.020688   0.329942 
Mo   2.880079  23.961186  16.804909  -0.608032  -0.442982   0.127497 
S    2.040871  22.384054  18.495382  -0.303287  -0.083047  -0.537368 
S    4.771494  23.900026  18.350231  -0.191209   0.731150  -0.125968 
S    4.580505  23.908022  15.067398   0.545383   0.621898   0.447017 
S    1.941778  22.295992  15.273709  -0.423704   0.375669  -0.082920 
Mo   5.570133  22.373930  16.685232   1.068439  -0.766616   0.353504 
Mo   8.412897  23.950320  16.668135   0.067064   0.095803   0.866589 
S    7.482830  22.323237  18.290250  -0.181772   0.260260  -0.455054 
S   10.249068  23.963906  18.279631   0.354407   0.116032  -0.354933 
S   10.289345  23.922171  15.124280  -0.285481   0.857823  -1.052060 
S    7.473110  22.368788  15.120138  -0.353334  -0.128417  -0.492068 
Mo  11.182380  22.372541  16.641903   0.588073  -0.301979   1.111843 
Mo  13.914912  23.987485  16.740530   1.347676   0.306503   0.515542 
S   12.960976  22.312566  18.322336   0.352687   0.480783  -0.376734 
S   15.768602  24.034956  18.382497  -0.104563  -0.156333  -0.275788 
S   15.859840  24.110476  15.184466  -0.453323  -0.338119   0.125280 
S   13.125289  22.445795  15.093508  -0.663138  -0.563758  -0.064706 
Mo  16.773809  22.482062  16.767866  -0.438839  -0.176976  -0.882945 
Mo  19.545094  24.031358  16.779757  -0.517587   0.232256   0.612071 
S   18.585526  22.438986  18.335582   0.241941  -0.270127   0.341052 
S   21.313023  24.007537  18.433273   0.422652  -0.369241   0.392477 
S   21.455776  24.051000  15.294238  -0.057544  -0.193911  -0.266961 
S   18.641450  22.470324  15.161391  -0.307896  -0.042481  -0.142467 
Mo  22.324767  22.381543  16.874422  -0.634220   0.567392   0.216638 
Mo  25.039411  23.977589  16.964611  -0.477115   0.315544  -0.088403 
S   24.104054  22.321115  18.572772   0.040700   0.285828  -0.708838 
S   26.810703  23.944133  18.521780   0.730977   0.721235   0.987621 
S   26.912754  23.914044  15.403816  -0.060011   0.666114  -0.369409 
S   24.156242  22.476439  15.305608   0.116978  -0.753798  -0.154922 
Mo  27.804512  22.389021  17.019177   0.567701  -0.749154   0.255790 
Mo  30.628285  23.892082  16.960323  -0.300783   0.540781   0.366638 
S   29.660308  22.365484  18.687211   0.019263  -0.213678  -1.093234 
S   32.455261  23.985151  18.515826   0.511711   0.082480   0.295524 
S   32.462287  24.017698  15.337117   0.086003  -0.639431   0.061698 
S   29.640114  22.300182  15.397851   0.081230  -0.048791   0.281010 
