288
Lattice="33.338211 0.035051 0.030873 0.026971 25.648904 -0.000664 0.027096 9e-05 30.449528 " PBC="1 1 1" Properties="species:S:1:pos:R:3:force:R:3" Energy=" -5.284966"
Mo   0.037443  -0.026402  16.898510   1.286182  -0.344238   0.226530 
Mo   2.867885   1.557709  16.816785  -0.227688  -0.500975   0.324369 
S    1.902062  -0.031707  18.476295   0.542965  -0.136682  -0.663440 
S    4.704393   1.566173  18.416457   0.072141  -0.158372  -0.056635 
S    4.623177   1.559677  15.151458   0.481400  -0.073172   0.466256 
S    1.905880  -0.047958  15.226530  -0.122401   0.040561   0.695736 
Mo   5.631712   0.001410  16.794626  -0.146781  -0.519630  -0.801193 
Mo   8.342486   1.593165  16.776541  -0.005042  -0.924492  -0.491564 
S    7.508357  -0.039284  18.424639  -0.426371   0.211566  -0.537980 
S   10.166415   1.489488  18.328346   0.601313   0.992181   0.215643 
S   10.125357   1.625815  15.129958   0.363644  -0.478713  -0.012794 
S    7.425983  -0.024192  15.096368   0.215744   0.368460   1.020354 
Mo  11.136123   0.011461  16.729183   0.111965  -0.808724  -1.561412 
Mo  13.900274   1.536647  16.718651   0.406349   0.269569  -0.116879 
S   12.969880  -0.077412  18.291694   0.130864   0.139596   0.074734 
S   15.685883   1.551095  18.382519   0.341965   0.120722  -0.384594 
S   15.845857   1.592170  15.180872  -0.662175  -0.060640  -0.100631 
S   12.967651  -0.005349  15.018348   0.032621   0.005007   1.068418 
Mo  16.622575  -0.047084  16.757451   0.762782   0.078767  -0.388585 
Mo  19.474744   1.569140  16.812495  -0.467016   0.071880  -0.862411 
S   18.464410  -0.061214  18.317909   0.400655  -0.221589   0.330947 
S   21.253290   1.556978  18.405201   0.629451   0.323350   0.056539 
S   21.301695   1.620427  15.195550   0.235122  -0.403361   0.126823 
S   18.575604  -0.073511  15.206328  -0.308832   0.288118  -0.062502 
Mo  22.215599  -0.001943  16.812048   0.568537  -0.547497   0.319462 
Mo  25.064535   1.583697  16.810427  -0.266235  -0.070452   0.110590 
S   24.109358   0.028798  18.428233  -0.620403   0.022206   0.130981 
S   26.852836   1.632599  18.496388   0.322603  -0.186305  -0.813201 
S   26.909897   1.635028  15.209600  -0.053974  -0.361283   0.155454 
S   24.096095  -0.066965  15.241602   0.082906   0.567609   0.009820 
Mo  27.775764   0.035222  16.845393   0.957380  -0.423853   0.299675 
Mo  30.622027   1.570812  16.907175   0.481021   0.954292   0.439305 
S   29.696330  -0.053107  18.449329  -0.411488   0.056602   0.074442 
S   32.511533   1.594835  18.545619  -0.565191  -0.056004  -0.149533 
S   32.551541   1.599564  15.370868  -0.826910   0.044225  -0.629927 
S   29.743846  -0.003243  15.323956  -0.416366  -0.468760  -0.103471 
Mo   0.118219   3.131658  16.905488  -0.367143   0.169219   0.232170 
Mo   2.851317   4.781615  16.800206   0.733654  -0.722824   1.160860 
S    1.997597   3.135345  18.432818   0.011229   0.276445   0.084127 
S    4.742704   4.772252  18.385985  -0.280192   0.126196  -0.290100 
S    4.683105   4.803680  15.163705  -0.024570  -0.520581   0.377693 
S    1.972325   3.163488  15.251155  -0.662659  -0.070320  -0.164735 
Mo   5.590418   3.131217  16.779881   0.447955   0.770727   0.034752 
Mo   8.363839   4.760972  16.796307   0.779923  -0.206688  -0.393331 
S    7.508667   3.176342  18.408461  -0.753078  -0.026072  -0.188765 
S   10.323569   4.717177  18.370564  -0.644738   0.352655  -0.460064 
S   10.235121   4.766745  15.193023  -0.377112  -0.285888  -0.594401 
S    7.437982   3.167664  15.187868  -0.172427   0.146400  -0.009688 
Mo  11.153813   3.135173  16.712030  -0.415767   0.007367   0.749176 
Mo  13.969714   4.759826  16.759462  -0.701100  -0.022353  -0.278841 
S   12.961444   3.144850  18.319996   0.452070  -0.176304   0.003557 
S   15.753123   4.808421  18.357922   0.571717  -0.155804   0.077910 
S   15.826877   4.805976  15.176523   0.120117  -0.580889   0.089909 
S   13.017719   3.145265  15.157340   0.138337   0.220829  -0.314388 
Mo  16.722771   3.165697  16.805395   0.241220   0.240624   0.076745 
Mo  19.512976   4.802595  16.828508  -0.742643  -0.317495   0.232729 
S   18.606902   3.124110  18.453827  -0.589656   0.494938  -0.609083 
S   21.362834   4.800863  18.356921   0.411050   0.208276   0.307725 
S   21.314702   4.877442  15.237233   0.753266  -0.586760  -0.146438 
S   18.591704   3.213546  15.172314  -0.086716  -0.172162   0.801191 
Mo  22.280145   3.172452  16.784698  -0.441015   0.368894   0.588611 
Mo  25.120342   4.780678  16.905519  -1.081589  -0.042122  -0.466550 
S   24.117310   3.119617  18.432418  -0.076074   0.361609  -0.073006 
S   26.947578   4.768114  18.493257  -0.049976   0.259234  -0.010645 
S   26.893136   4.796186  15.262501   0.501894   0.331038   0.137618 
S   24.151813   3.227172  15.267131   0.140428  -0.034702  -0.312263 
Mo  27.811251   3.199781  16.837222   0.243683  -0.090334   0.590186 
Mo  30.622061   4.789710  16.912828   0.161220  -0.424324  -0.285116 
S   29.644037   3.245698  18.474557   0.161328  -0.758092  -0.100277 
S   32.499338   4.753438  18.587597  -0.220825  -0.296744  -0.784577 
S   32.450383   4.693378  15.343503   0.418907   0.298605  -0.228123 
S   29.692722   3.186590  15.290808   0.226136  -0.114825   0.116778 
Mo   0.077541   6.259404  16.892857   0.560537   0.432694  -0.427011 
Mo   2.796683   7.942033  16.847453   0.019254  -0.050396   0.624082 
S    1.909231   6.312699  18.477178   0.470534   0.119889  -0.347929 
S    4.680369   7.994816  18.399009   0.439884  -0.017245  -0.389750 
S    4.583474   7.957578  15.177214   0.241206   0.012958   0.031635 
S    1.936913   6.306778  15.252864  -0.754774   0.508122  -0.276084 
Mo   5.599690   6.393908  16.748877   0.004843  -0.525415   0.704510 
Mo   8.398380   7.899269  16.702906   0.046898   0.583796  -0.545743 
S    7.487670   6.365079  18.338071  -0.289795   0.165746   0.216188 
S   10.303193   7.984408  18.199794  -0.336060   0.011991   0.716005 
S   10.248315   7.912255  15.081726  -0.061452  -0.409059  -0.256615 
S    7.396563   6.274269  15.127063   0.358116   0.438269   0.177081 
Mo  11.189441   6.331581  16.696385   0.231391   0.413792   0.379481 
Mo  13.991124   7.980062  16.768103  -0.274899   0.166129  -1.324974 
S   12.987553   6.362031  18.324676   0.441807   0.111164   0.048388 
S   15.832449   8.001956  18.340274   0.046743   0.071889  -0.011923 
S   15.853898   7.925730  15.116865  -0.352474   0.088791   0.011720 
S   13.083784   6.355822  15.154318  -0.119907   0.045386   0.015635 
Mo  16.752598   6.401483  16.743128   0.114707  -0.468500   0.607099 
Mo  19.609813   7.993089  16.794181  -0.562710   0.127001  -0.536760 
S   18.545765   6.440284  18.414984   0.561508  -0.133575  -0.390587 
S   21.385547   8.079237  18.423858   0.306263  -0.411280  -0.357311 
S   21.515378   8.025647  15.138090  -0.736011  -0.121568   0.379277 
S   18.658591   6.376555  15.201648  -0.207544   0.145090   0.052260 
Mo  22.343740   6.453080  16.794013  -0.657347  -0.239290   1.121329 
Mo  25.118850   7.940556  16.887001   0.689172   0.813940  -0.545134 
S   24.188741   6.405268  18.429131  -0.567860  -0.413804   0.778252 
S   27.029151   8.000846  18.480896  -0.707158  -0.093247   0.129074 
S   26.959515   7.930283  15.269692   0.003954   0.082696   0.036431 
S   24.176705   6.406563  15.304024   0.525180  -0.552001  -0.760799 
Mo  27.869990   6.388031  16.906470   0.515488  -0.798840  -0.422461 
Mo  30.718289   7.895709  16.887429  -0.629317   0.744201   0.380069 
S   29.745068   6.324771  18.528010  -0.340593   0.711054  -0.336291 
S   32.541274   7.819898  18.557595  -0.456766   0.982559  -0.444155 
S   32.608158   7.947635  15.313815  -0.824503  -0.603093  -0.082409 
S   29.702895   6.388049  15.249607   0.231470  -0.341561   0.659902 
Mo   0.024289   9.510502  16.898424   0.265642   0.057650   0.382261 
Mo   2.824938  11.106741  16.857011   0.200766   0.087371  -1.003898 
S    1.872968   9.603437  18.484368   0.272790  -0.763430  -0.171046 
S    4.776393  11.156564  18.303815  -0.083434  -0.492931   0.489151 
S    4.632156  11.122124  15.199941   0.112629  -0.135272  -0.274741 
S    1.802345   9.467841  15.271154   0.460593   0.663682   0.007234 
Mo   5.666305   9.514317  16.710722  -0.724726   0.339507   0.186789 
Mo   8.375400  11.149098  16.608592   0.784320  -1.120819  -0.410769 
S    7.511350   9.549426  18.303864   0.210453   0.072696  -0.520528 
S   10.268040  11.141294  18.137680  -0.047179   0.288831   0.272023 
S   10.235180  11.085274  14.947253  -0.175598   0.319733   0.081884 
S    7.507702   9.484578  15.039167  -0.513155  -0.173414   0.548558 
Mo  11.177834   9.562288  16.581409   0.583688  -0.355973  -0.265526 
Mo  13.935043  11.204586  16.596713   1.331628  -1.061809   0.448227 
S   12.979002   9.626892  18.228556   0.244958   0.043554   0.076472 
S   15.795077  11.112137  18.239169  -0.066507   0.366745  -0.217900 
S   15.902566  11.075348  15.031780  -0.595690  -0.004790   0.011216 
S   13.121981   9.577185  15.002621  -0.469126  -0.639432   0.726207 
Mo  16.792089   9.522082  16.678750   0.059022   0.385387   0.345468 
Mo  19.579430  11.199669  16.656734  -0.079296  -0.494099   0.321897 
S   18.647936   9.639693  18.328734  -0.201829  -0.260070  -0.543714 
S   21.333419  11.186707  18.327370   0.229942   0.357553  -0.103103 
S   21.489161  11.183464  15.050661  -0.335875   0.144971   0.685783 
S   18.699467   9.545616  15.118633  -0.095631  -0.200040   0.020180 
Mo  22.314271   9.629875  16.756557   0.465939  -0.497081  -0.262610 
Mo  25.157420  11.135876  16.810346  -1.085991   0.645142   0.544034 
S   24.112325   9.546370  18.362755   0.428793   0.577998   0.597658 
S   26.944903  11.144472  18.438567  -0.120365  -0.350509   0.310698 
S   26.993312  11.131448  15.223935   0.064245   0.174802   0.130705 
S   24.270390   9.546842  15.234014  -0.297573   0.000017  -0.071192 
Mo  27.921728   9.528352  16.841064  -0.576067   0.711138   0.360935 
Mo  30.624892  11.185189  16.886263   0.063225  -0.132714   0.789142 
S   29.729915   9.529425  18.489714   0.362240  -0.003255  -0.471353 
S   32.450372  11.172777  18.494937   0.079973   0.050817  -0.135867 
S   32.462308  11.149205  15.268198   0.041373  -0.102059   0.328931 
S   29.780915   9.561082  15.313309   0.170391  -0.323827  -0.368876 
Mo   0.058084  12.710182  16.825374   0.390839  -0.194531   0.423303 
Mo   2.876253  14.314569  16.779675  -0.259359   0.709906   0.578767 
S    1.982803  12.746517  18.395133  -0.502039  -0.003607   0.330354 
S    4.802362  14.342761  18.354627  -0.128780   0.418211  -0.540403 
S    4.619479  14.369360  15.190127   0.875894  -0.068660  -0.512665 
S    1.927579  12.699080  15.228622  -0.266140  -0.164791  -0.002584 
Mo   5.663535  12.729740  16.716086  -0.841719   0.373073  -0.385058 
Mo   8.351818  14.306821  16.633902   0.702531   0.426267  -1.086243 
S    7.533302  12.682091  18.219568  -0.156630   0.463974   0.823688 
S   10.277781  14.346059  18.098052  -0.118213  -0.328193   0.405158 
S   10.196361  14.356618  14.921516  -0.086567  -0.353446   0.656977 
S    7.380802  12.679402  15.012405   0.272016   0.481147   0.157423 
Mo  11.201854  12.700907  16.508341  -0.828918   0.877153  -0.060709 
Mo  13.938791  14.382143  16.557886  -0.118832  -1.052731  -0.666980 
S   12.973717  12.803805  18.156507   0.302830   0.052603   0.038224 
S   15.776958  14.354055  18.086937   0.317999  -0.453567   1.112973 
S   15.888651  14.274135  15.036093  -0.400817   0.364912  -0.508224 
S   13.064694  12.689588  14.953530  -0.075821   0.806024  -0.274583 
Mo  16.775095  12.664950  16.604059  -0.778847   0.855902   0.574930 
Mo  19.497336  14.370457  16.678369   0.776788  -0.354238   0.521944 
S   18.523264  12.731723  18.231918   0.544459   0.193613   0.481746 
S   21.324362  14.351307  18.329689  -0.196766   0.090686  -0.090051 
S   21.362902  14.424350  15.088391   0.402304  -0.633284   0.465558 
S   18.637299  12.776571  15.097251   0.094334  -0.205429  -0.885405 
Mo  22.298471  12.787961  16.742456  -0.691565  -0.206537  -0.248565 
Mo  24.987108  14.430750  16.878478   1.047252  -0.279994  -1.187650 
S   24.053609  12.756559  18.400462   0.593080  -0.165516   0.049632 
S   26.853454  14.460281  18.422138  -0.040770  -0.716486   0.512172 
S   26.904109  14.459364  15.289313  -0.102665  -0.474449   0.328309 
S   24.177947  12.789407  15.273767   0.456711   0.086237  -0.537418 
Mo  27.785870  12.740486  16.884779   1.271683   1.307376  -0.393430 
Mo  30.614814  14.400009  16.972963   0.139207  -0.093270  -0.204543 
S   29.657326  12.804826  18.548421  -0.197636  -0.323911  -0.674749 
S   32.531213  14.333819  18.496215  -0.240045   0.013975   0.199795 
S   32.419045  14.347999  15.319237   0.181372   0.181666  -0.059347 
S   29.730871  12.807304  15.326544  -0.619770   0.175156   0.196883 
Mo   0.105400  15.869990  16.876267  -0.746734   1.240227   0.107199 
Mo   2.833398  17.585565  16.775816   0.236552  -0.030879   0.442310 
S    2.009830  15.930026  18.389209  -0.049890   0.004020   0.183008 
S    4.748224  17.654169  18.345223  -0.067400  -0.420949  -0.699430 
S    4.627322  17.586575  15.107705   0.124655   0.103763   0.202544 
S    1.848483  15.958452  15.236316   0.560320  -0.433465  -0.256461 
Mo   5.650629  16.017415  16.698269  -0.554806  -0.409428   0.344082 
Mo   8.410854  17.564736  16.578366  -0.069592   0.314397   0.115402 
S    7.540731  16.007395  18.223396  -0.106152  -0.385014   0.144023 
S   10.286954  17.604179  18.158409  -0.242117  -0.369054  -0.100720 
S   10.173275  17.585887  14.939458   0.482431  -0.070129  -0.060376 
S    7.466134  15.937347  15.043009  -0.436184  -0.092440   0.045186 
Mo  11.133650  15.956296  16.537011   0.082402   0.293288  -0.210086 
Mo  13.907326  17.540608  16.588465   1.030863  -0.340951   0.150175 
S   13.003117  15.942012  18.138783  -0.403888  -0.052423   0.293033 
S   15.749135  17.485807  18.258878  -0.022189  -0.026545  -0.582712 
S   15.798128  17.546603  15.048996   0.060249  -0.073210  -0.158361 
S   12.979202  15.942309  14.974244   0.200697   0.182143  -0.348891 
Mo  16.770892  15.931469  16.602702  -0.716388   0.418280   0.165623 
Mo  19.431149  17.584665  16.664063   0.882558   0.242282   0.985043 
S   18.586985  15.968488  18.209694  -0.464207  -0.101846   0.936548 
S   21.300245  17.513004  18.339564  -0.415000   0.546351  -0.373791 
S   21.347749  17.519975  15.163516   0.033060   0.555439  -0.305950 
S   18.656378  15.952524  15.114209  -0.474675   0.113219  -1.362744 
Mo  22.264299  15.955426  16.763668   0.113487   0.397138  -0.315206 
Mo  25.060149  17.640254  16.887184  -0.991730  -0.200788   0.058854 
S   24.056293  16.011306  18.390838  -0.140961   0.219067   0.725304 
S   26.853448  17.646431  18.547379   0.266952  -0.237557  -0.423576 
S   26.875488  17.633426  15.346962   0.400852  -0.103701  -0.820006 
S   24.173562  16.092253  15.198325  -0.108277  -0.601069   0.637599 
Mo  27.817622  16.054649  16.903587   0.448130  -0.155490   0.697983 
Mo  30.641327  17.631275  16.863296   0.360637  -0.538092   1.158303 
S   29.749721  16.056817  18.549381  -0.556001   0.037740  -0.487354 
S   32.561672  17.618148  18.493178  -0.433756  -0.190838  -0.664605 
S   32.496908  17.534492  15.313610   0.134135   0.090506  -0.250946 
S   29.712757  16.020669  15.386974  -0.253529  -0.378182  -0.709223 
Mo   0.052536  19.191532  16.805264   0.341675  -0.351873   0.630838 
Mo   2.827121  20.785999  16.816617   0.218189   0.194505   0.000212 
S    1.913826  19.187316  18.418658   0.040823  -0.244823  -0.321595 
S    4.705862  20.794062  18.359605   0.474014  -0.052809  -0.502167 
S    4.612244  20.826732  15.141431   0.119051   0.158706  -0.059919 
S    1.872730  19.185196  15.214094   0.109372   0.069424  -0.119811 
Mo   5.616526  19.218251  16.651472  -0.477794  -0.384464   0.610782 
Mo   8.373783  20.818875  16.610637   0.615655  -0.355111  -0.041572 
S    7.520096  19.166230  18.156208  -0.151760   0.154922   0.505744 
S   10.276619  20.806784  18.144146  -0.341735  -0.612658   0.257643 
S   10.214512  20.864987  14.993263  -0.014821  -0.624669  -0.092986 
S    7.411464  19.178445  15.007883   0.164623   0.267447   0.136866 
Mo  11.162211  19.148943  16.535476   0.463377   0.968628  -0.037764 
Mo  13.902954  20.792687  16.606784   0.440619  -0.370621   0.703118 
S   13.029946  19.131252  18.171555  -0.542932   0.267697  -0.066776 
S   15.697914  20.767937  18.298777   0.088091   0.117314  -0.709901 
S   15.778563  20.841265  15.093053   0.284884  -0.183709  -0.202289 
S   13.122290  19.145490  15.000244  -0.985189   0.422908  -0.341190 
Mo  16.654518  19.151914  16.678632  -0.758293   0.460678   0.042721 
Mo  19.404814  20.724070  16.749980   0.749044   0.961443   0.162456 
S   18.417485  19.180373  18.265142   0.541514  -0.670558   0.722393 
S   21.308731  20.724793  18.398897  -0.703119  -0.053308  -0.320796 
S   21.296197  20.809217  15.177677   0.085786  -0.029615   0.271158 
S   18.462460  19.165318  15.106856   0.444943   0.271722  -0.460017 
Mo  22.218680  19.182718  16.742627   0.487442  -0.320921   0.819261 
Mo  25.101393  20.762905  16.860209  -1.082946   0.341578   0.252160 
S   24.059849  19.256814  18.443695  -0.260489  -0.516926  -0.271769 
S   26.897530  20.776225  18.507493   0.169722   0.141839  -0.067584 
S   26.902314  20.866782  15.320667   0.748448  -0.452581  -0.324373 
S   24.107271  19.170798  15.220398   0.456322   0.428878   0.240212 
Mo  27.838249  19.186799  16.894935  -0.091141   0.530323   0.003412 
Mo  30.566171  20.774652  16.883858   0.860439   0.242194   0.023348 
S   29.673087  19.148965  18.463242   0.257482   0.470947   0.350694 
S   32.509132  20.826747  18.476656  -0.326526   0.094621  -0.644237 
S   32.436044  20.836969  15.273085   0.117920   0.278941   0.238096 
S   29.688162  19.184392  15.250225  -0.128958   0.079717   0.218011 
Mo   0.136399  22.424600  16.834803  -0.766192  -0.370336  -0.029390 
Mo   2.894547  23.975990  16.830048  -0.386124   1.119115  -0.341508 
S    1.978810  22.437426  18.435769  -0.122743  -0.602247   0.079966 
S    4.775998  24.003737  18.325598  -0.018136  -0.153402   0.587307 
S    4.696614  24.033275  15.148430   0.082785   0.186204   0.449332 
S    1.953965  22.410684  15.253736  -0.173926  -0.107380  -0.525366 
Mo   5.621600  22.411423  16.713723   0.280998  -0.124201   0.028382 
Mo   8.431846  24.071312  16.762325  -0.264495  -0.459447  -0.926061 
S    7.496336  22.371383  18.280741   0.094403   0.265823  -0.015436 
S   10.316216  23.994385  18.268720  -0.169376  -0.168583   0.263840 
S   10.281436  24.051815  15.074084  -0.553401   0.522835   0.353678 
S    7.516066  22.491560  15.133646  -0.646373   0.121965  -0.356284 
Mo  11.156616  22.403297  16.601074   0.301497   0.449378   0.032702 
Mo  13.919063  24.004527  16.661703  -0.554344   0.068931   0.222942 
S   12.940974  22.345468  18.211607   0.386789   0.293048   0.225580 
S   15.706109  24.038793  18.319842  -0.012088  -0.548695   0.020847 
S   15.768557  23.989077  15.119375   0.234263   0.490863  -0.440255 
S   13.042325  22.432729  15.052385  -0.324075  -0.188007  -0.449742 
Mo  16.655017  22.439033  16.707391   0.705968  -0.739811   0.893278 
Mo  19.533401  23.977244  16.761817  -0.395454  -0.016812   0.472207 
S   18.498107  22.375690  18.368039   0.043944   0.122565  -0.658349 
S   21.306459  23.960962  18.424016   0.195270   0.582577  -0.052009 
S   21.479692  23.991992  15.187407  -0.889412  -0.042010   0.341181 
S   18.608360  22.405785  15.190243  -0.474973  -0.064735  -0.246626 
Mo  22.220183  22.376647  16.861548   0.666561  -0.084783  -0.698915 
Mo  25.026883  24.069350  16.891219   0.583644  -0.622336  -0.627382 
S   24.112530  22.371835  18.397048  -0.018765   0.304938   0.710885 
S   26.825359  24.122375  18.467642   0.665946  -0.291447   0.159583 
S   26.932896  24.028690  15.245747  -0.254483  -0.040335   0.906791 
S   24.180214  22.414244  15.373762  -0.524705  -0.157465  -0.901981 
Mo  27.833881  22.427266  16.954431  -0.798231   0.618151  -0.493923 
Mo  30.704261  23.975938  16.908971  -0.968915   0.329041  -0.856166 
S   29.683065  22.363799  18.488712   0.361351   0.369239   0.319459 
S   32.512321  23.991546  18.484473   0.237046   0.116915   0.253008 
S   32.616709  24.137002  15.269374  -0.945995  -0.958552   0.248963 
S   29.621649  22.409023  15.338921   0.598987   0.162674  -0.133575 
