288
Lattice="33.332938 0.034909 0.030868 0.026862 25.657617 -0.000664 0.027092 9e-05 30.567851 " PBC="1 1 1" Properties="species:S:1:pos:R:3:force:R:3" Energy=" -5.285359"
Mo   0.092015  -0.093822  16.775709  -0.111955   0.161024   0.604782 
Mo   2.849785   1.539413  16.797664   0.375429   0.098919  -0.370007 
S    1.957125  -0.016513  18.411674  -0.522195  -0.164582   0.068867 
S    4.705817   1.495408  18.357984   0.136992   0.217513   0.141223 
S    4.715313   1.559359  15.172180  -0.456871  -0.128291  -0.316631 
S    1.948069  -0.110530  15.213148  -0.138010   0.199022  -0.108907 
Mo   5.642057  -0.055715  16.704123   0.253071   0.011615   0.453345 
Mo   8.398615   1.489982  16.697031   0.087067   0.617314   0.082992 
S    7.456245  -0.099223  18.292827   0.263879   0.310748   0.562967 
S   10.187187   1.524131  18.281635   0.549240   0.044334   0.617794 
S   10.267002   1.450058  15.102570  -0.139342   0.650436   0.077831 
S    7.544482  -0.100063  15.135657  -0.655972  -0.344177  -0.392051 
Mo  11.196301  -0.062131  16.734040  -0.665368  -0.544146  -0.506792 
Mo  13.917539   1.514939  16.767870  -0.155899   0.552307  -0.216137 
S   12.990598  -0.064406  18.318612   0.024832  -0.134865   0.849969 
S   15.711668   1.529669  18.379530   0.491934   0.290397  -0.024018 
S   15.713999   1.592625  15.181022   0.679931  -0.638937  -0.121903 
S   13.020416  -0.087711  15.151890   0.078323  -0.028386  -0.198484 
Mo  16.619762  -0.073467  16.790765   0.524363  -0.211719  -0.043719 
Mo  19.478488   1.470992  16.832319   0.604256   0.039847  -0.204785 
S   18.538824  -0.073971  18.408727  -0.493220  -0.479271  -0.194486 
S   21.409139   1.490668  18.408127  -0.536272   0.240280  -0.195204 
S   21.356414   1.428045  15.251752  -0.098288   0.328960   0.065478 
S   18.519143  -0.141973  15.252352  -0.100092   0.284014  -0.258761 
Mo  22.252515  -0.179841  16.846549   0.286416   0.591289   0.113771 
Mo  25.024552   1.486977  16.859347  -0.769078   0.918253  -0.902128 
S   24.161180  -0.165460  18.405409  -0.536096  -0.042260   0.145140 
S   26.797362   1.537591  18.422657   0.845933   0.270079   0.570015 
S   26.896899   1.577609  15.298015  -0.325800  -0.266696  -0.612702 
S   24.067989  -0.134768  15.220266   0.258369   0.026379   0.255533 
Mo  27.772226  -0.026686  16.848623   1.596278   0.101398  -0.384031 
Mo  30.635767   1.599063  16.855992   0.005638  -0.817451  -0.531940 
S   29.694842   0.018583  18.468487  -0.351084   0.042347  -0.296304 
S   32.542503   1.632553  18.361060  -0.202356  -0.629425   0.395039 
S   32.465214   1.497141  15.222966   0.266621   0.544739   0.012379 
S   29.663635  -0.009841  15.208701   0.122584  -0.009786   0.957749 
Mo   0.117592   3.146306  16.746058   0.097904  -0.145361   0.212426 
Mo   2.795123   4.758068  16.767839   1.340616  -0.179751   0.821242 
S    1.944335   3.156588  18.402078  -0.131481  -0.052017  -0.344826 
S    4.733762   4.828492  18.379285  -0.574295  -1.038430  -0.206636 
S    4.691952   4.763274  15.238401  -0.074329  -0.259232  -0.482594 
S    2.045804   3.152985  15.158600  -0.922648  -0.333346  -0.050576 
Mo   5.615094   3.100188  16.789123  -0.050648   0.990540   0.423639 
Mo   8.350009   4.752972  16.734506   0.932332  -0.252438  -0.050693 
S    7.511620   3.081176  18.335058  -0.298924   0.232149  -0.049060 
S   10.218304   4.745380  18.291101   0.400387   0.238184  -0.105915 
S   10.273044   4.780206  15.116096  -0.509762  -0.386146   0.253857 
S    7.417671   3.127259  15.169341   0.292802  -0.052721  -0.334972 
Mo  11.155035   3.110168  16.725942  -0.323399   0.376925  -0.223567 
Mo  13.929009   4.789228  16.813166   0.247728  -0.304232  -0.844277 
S   13.003549   3.119836  18.344073  -0.257987   0.228392   0.187312 
S   15.826860   4.747060  18.358661  -0.048720   0.435584  -0.160466 
S   15.771137   4.704041  15.174615   0.270337   0.308026  -0.015200 
S   13.003647   3.121199  15.192197   0.325523   0.453628  -0.183427 
Mo  16.731104   3.138091  16.772018  -0.686230  -0.482367   0.328817 
Mo  19.597288   4.700245  16.790093  -0.844147   0.450100   0.636412 
S   18.555384   3.097795  18.367343   0.436229   0.311691   0.211011 
S   21.407064   4.827223  18.405236   0.053071  -0.631748  -0.545745 
S   21.417614   4.786768  15.100205  -0.079598  -0.410080   0.896055 
S   18.595969   3.076469  15.235550   0.309406   0.143081  -0.357835 
Mo  22.268418   3.153593  16.787279   0.368642  -0.136023   0.394540 
Mo  25.113277   4.748739  16.807972  -0.385184   0.158030  -0.103700 
S   24.131798   3.218934  18.441282  -0.193205  -0.676261  -0.682816 
S   26.911117   4.741152  18.431874   0.562869   0.220812  -0.215461 
S   26.977571   4.726215  15.225291  -0.029226   0.236493   0.173589 
S   24.109666   3.126670  15.209521   0.443252  -0.144506   0.401520 
Mo  27.863232   3.133528  16.849958  -0.078854   0.365241   0.367441 
Mo  30.694559   4.785773  16.759471  -0.587886  -0.406516   0.949863 
S   29.768072   3.210602  18.423259  -0.402693   0.162349  -0.156640 
S   32.463092   4.733005  18.495988   0.310548   0.063411  -1.353744 
S   32.541736   4.729740  15.179043  -0.453595   0.233303  -0.270564 
S   29.713290   3.113608  15.228351  -0.042747   0.513241  -0.006421 
Mo  -0.001287   6.313202  16.772360   0.938300   0.219308   0.342750 
Mo   2.837165   7.901734  16.761850  -0.207202   0.688867  -0.049354 
S    1.874829   6.307053  18.375434  -0.096821   0.461666  -0.215973 
S    4.687240   7.971162  18.348816  -0.119845  -0.492680   0.293132 
S    4.714217   7.954434  15.177060  -0.215674  -0.006491  -0.076018 
S    1.875910   6.316409  15.175400  -0.159850   0.294779  -0.155093 
Mo   5.616143   6.355229  16.765677   0.726343   0.499037   0.576921 
Mo   8.362657   7.985163  16.798893   0.343890  -0.416841   0.428442 
S    7.517176   6.329627  18.396128  -0.593533   0.087697  -0.430555 
S   10.265915   7.944086  18.348610  -0.139785  -0.176388  -0.133472 
S   10.142415   7.989901  15.156624   0.587824   0.239418  -0.052144 
S    7.462637   6.378268  15.180202  -0.083132   0.022055  -0.239386 
Mo  11.179445   6.389736  16.682359  -0.432512  -0.212335   0.536864 
Mo  13.964759   7.990667  16.726713   0.666754   0.448936   0.176305 
S   12.963088   6.456354  18.317364   0.403769  -0.451300   0.296320 
S   15.837563   7.976243  18.315295   0.329802  -0.166040  -0.495358 
S   15.861171   7.942308  15.164493   0.074735   0.190370  -0.516976 
S   13.092413   6.438152  15.151173  -0.481703  -0.722535  -0.249980 
Mo  16.810425   6.328059  16.709436  -1.177490   0.078074   1.201620 
Mo  19.594623   7.936507  16.799621   0.472853  -0.003870  -0.086016 
S   18.552678   6.383973  18.408769   0.746090  -0.667879  -0.658570 
S   21.455233   7.919513  18.388593  -0.172785  -0.300871   0.193384 
S   21.542002   7.956224  15.210626  -0.767577   0.669619  -0.308364 
S   18.700946   6.289704  15.256319  -0.006600   0.379903  -1.036122 
Mo  22.363993   6.368928  16.738593   0.364720  -0.943090   1.094735 
Mo  25.178570   8.001270  16.883446   0.334397  -0.230852  -0.414682 
S   24.184388   6.356005  18.431317   0.038504   0.039370  -0.646102 
S   27.032710   7.945464  18.473153  -0.086625  -0.073572  -0.020932 
S   27.083799   8.027953  15.258977  -0.647912   0.179227   0.527550 
S   24.255149   6.377496  15.199218   0.241316   0.258208   0.352619 
Mo  27.933802   6.371426  16.818283  -0.835171  -0.528837   0.552851 
Mo  30.613254   8.021733  16.873773   0.606436   0.316598  -0.163570 
S   29.765425   6.376930  18.405691  -0.119754  -0.396516   0.131143 
S   32.507742   7.935750  18.443578  -0.352773   0.343441  -0.155116 
S   32.402225   8.016847  15.239415   0.187784  -0.203204  -0.017598 
S   29.733396   6.426170  15.245388   0.223173  -0.099500  -0.519517 
Mo   0.042246   9.535921  16.795295   0.508736   0.412034   0.168850 
Mo   2.857162  11.205369  16.760764   0.170062  -1.157004  -0.576411 
S    1.968640   9.585232  18.330146  -0.387120  -0.472471   0.048811 
S    4.725400  11.116828  18.393513  -0.495257   0.032899   0.013880 
S    4.754057  11.162355  15.188497  -0.271086   0.087077   0.260039 
S    1.869736   9.512589  15.153018   0.413119   0.421460   0.510322 
Mo   5.649702   9.531526  16.798498  -0.558818   0.531834   0.291709 
Mo   8.365791  11.149626  16.910071   0.458547  -0.227079  -0.532161 
S    7.481775   9.521342  18.508252  -0.321772   0.003030  -0.725803 
S   10.273270  11.129076  18.435106  -0.078891  -0.409420   0.408624 
S   10.229617  11.141250  15.300495  -0.227892   0.673670  -0.345698 
S    7.447550   9.607924  15.249812   0.514278  -0.092247  -0.261007 
Mo  11.177683   9.558490  16.776169   0.025626  -0.419052   0.699802 
Mo  13.883495  11.199285  16.800218   1.274982   0.253825   0.442472 
S   13.088915   9.519618  18.357453  -0.619767   0.414433   0.172742 
S   15.854329  11.118053  18.296230  -0.473192  -0.165007   0.740657 
S   15.785805  11.225874  15.227356   0.166348  -0.147142  -0.315813 
S   13.010270   9.664233  15.190463   0.070045  -0.604524  -0.496816 
Mo  16.827334   9.571631  16.697423  -0.635991  -0.353204   1.297498 
Mo  19.601011  11.117601  16.890326  -0.012880   1.309198  -0.044926 
S   18.692196   9.509730  18.388231  -0.782511  -0.141676   0.221805 
S   21.468900  11.082870  18.438529  -0.171673   0.188062   0.631117 
S   21.481866  11.183158  15.350122   0.073621  -0.408572  -0.396261 
S   18.721664   9.631098  15.258894   0.169584  -0.669560  -1.038394 
Mo  22.451384   9.506650  16.883330  -0.415690   0.882538  -0.676897 
Mo  25.109737  11.266763  17.022313   0.053055  -0.541336  -1.162997 
S   24.258542   9.592520  18.536337  -0.085435  -0.483899  -0.048378 
S   26.962166  11.288031  18.539733   0.302972  -0.525933   0.406336 
S   26.931495  11.282598  15.339277   0.011652  -0.382989   0.555365 
S   24.323531   9.642428  15.295878  -0.206518  -0.024852   0.583594 
Mo  27.916755   9.624731  16.943169  -0.610648   0.512486  -0.382814 
Mo  30.647000  11.279224  16.893073  -0.064072  -0.873183  -0.038419 
S   29.776343   9.625687  18.521845  -0.062967   0.147045  -0.164722 
S   32.555974  11.236021  18.423523  -0.468728  -0.346286   0.261523 
S   32.463058  11.224488  15.272641  -0.150537  -0.100430  -0.316641 
S   29.689529   9.684235  15.306622   0.204683  -0.091039   0.104631 
Mo   0.055744  12.794137  16.785955   0.742643  -0.024297   0.731326 
Mo   2.806633  14.380586  16.876125   0.357907   0.212135   0.369145 
S    1.912497  12.677869  18.399806  -0.084932   0.693484   0.020227 
S    4.681471  14.370768  18.481288  -0.122849  -0.299365  -0.147811 
S    4.670602  14.407921  15.337836   0.161169  -0.482908  -0.501415 
S    1.889673  12.819855  15.182150   0.311887   0.073967   0.220871 
Mo   5.636566  12.731055  16.863233  -0.053281   0.740735  -0.598395 
Mo   8.441995  14.290096  16.893431  -0.969789   0.600124  -0.203421 
S    7.411056  12.715023  18.491125   0.501260   0.151437   0.131130 
S   10.261534  14.350871  18.507957   0.043002  -0.047684  -0.028167 
S   10.266917  14.360727  15.289533  -0.105419  -0.364071   0.157430 
S    7.515125  12.743389  15.243351  -0.280768  -0.009841   0.493635 
Mo  11.190829  12.741960  16.917231  -0.450824   0.635896  -0.297820 
Mo  13.941139  14.372745  16.901011   0.315361  -0.911974  -0.919280 
S   13.051131  12.773852  18.545890  -0.048951  -0.249457  -0.841940 
S   15.853079  14.339888  18.448836  -0.324762  -0.350997   0.156441 
S   15.790425  14.307754  15.218679   0.173121   0.245160   0.696121 
S   12.904386  12.831798  15.240808   0.854315  -0.071990   0.389933 
Mo  16.787905  12.751617  16.842155  -0.303314   0.281209  -0.314010 
Mo  19.555302  14.365590  16.973851  -0.820467   0.122844  -0.370816 
S   18.600349  12.693938  18.537148   0.186420   0.037412  -0.698210 
S   21.410879  14.363377  18.509705  -0.204365   0.463133   0.589306 
S   21.314608  14.369761  15.336428   0.749455   0.082854  -0.051042 
S   18.669280  12.781620  15.285221   0.147457  -0.023089   0.556628 
Mo  22.314085  12.805776  16.945470   0.674676  -0.462449  -0.031405 
Mo  25.045728  14.459808  16.975695   0.091543  -0.639212  -0.864310 
S   24.138976  12.829080  18.649816   0.015885   0.329241  -0.742015 
S   26.884115  14.544062  18.479772   0.612791  -0.866572   0.741707 
S   26.894051  14.455485  15.297951  -0.004821  -0.414801   0.601622 
S   24.171147  12.792620  15.381265  -0.047244   0.492549   0.119473 
Mo  27.856650  12.843986  16.940917  -0.456226   0.894953  -0.389534 
Mo  30.600217  14.456995  16.947991   0.925255   0.029801  -0.663078 
S   29.720175  12.826508  18.484186  -0.100910   0.236380   0.811666 
S   32.513293  14.426944  18.492487  -0.070282  -0.074131  -0.209891 
S   32.492828  14.451529  15.290084  -0.492543   0.293418   0.270416 
S   29.664390  12.872601  15.336141   0.311789   0.041007  -0.178607 
Mo   0.150206  15.995792  16.877884  -0.741017   0.395114   0.485767 
Mo   2.888282  17.631705  16.893262  -0.619487  -0.207472  -0.330982 
S    1.945403  16.073765  18.519496   0.203558  -0.704561  -0.428368 
S    4.731501  17.618971  18.469238  -0.001741   0.229127   0.293659 
S    4.723422  17.597615  15.327639  -0.071581   0.110739  -0.675544 
S    1.985649  16.027277  15.274103  -0.189514   0.062279   0.146097 
Mo   5.599281  15.986963  16.898555   0.458787  -0.440347   0.211761 
Mo   8.370922  17.535963  16.863294   0.756332   0.053815   0.205718 
S    7.471842  15.901436  18.456469   0.104824   0.283986   0.257104 
S   10.301618  17.535858  18.468196  -0.728914   0.377937  -0.097259 
S   10.194496  17.496466  15.265139   0.290822   0.262809   0.170332 
S    7.444049  15.933632  15.307131   0.187311  -0.392403  -0.055391 
Mo  11.163972  15.942919  16.885682   0.491927  -0.286566   0.218431 
Mo  13.914669  17.533602  16.796881   0.123135  -0.584036   0.878778 
S   13.074126  15.906488  18.510360  -0.590262   0.886730  -0.534274 
S   15.764230  17.480544  18.421133   0.077670   0.552225  -0.335363 
S   15.821064  17.437219  15.296257  -0.202528   0.628827  -0.739978 
S   12.959856  15.917072  15.246538   0.302439   0.099454   0.234307 
Mo  16.739269  15.888641  16.861773   1.032241   0.515078   0.073505 
Mo  19.478077  17.585568  16.876263  -0.084157   0.178687   1.037315 
S   18.606795  15.987947  18.589942  -0.357657  -0.169727  -1.210738 
S   21.289985  17.596192  18.502033   0.347748  -0.200471   0.079879 
S   21.326601  17.512614  15.333834   0.311022   0.317193  -0.513610 
S   18.681872  15.997484  15.283885  -0.712868  -0.895765   0.488709 
Mo  22.304903  15.987777  16.906897  -0.468462  -0.268687   0.613277 
Mo  25.047575  17.639430  16.910985   0.152111  -0.236510  -0.724906 
S   24.168910  16.099478  18.511740  -0.547598  -0.250412   0.472424 
S   26.922217  17.640625  18.510951   0.064636   0.020817  -0.421915 
S   26.890494  17.572271  15.308411   0.275935   0.376306  -0.063999 
S   24.137320  16.010422  15.328585   0.080253  -0.059192  -0.064100 
Mo  27.873595  16.023198  16.889733  -0.451905   0.749654   0.005686 
Mo  30.642621  17.630644  16.975145   0.315077  -0.073354  -0.490271 
S   29.662049  16.048227  18.541717   0.321573  -0.068085   0.127821 
S   32.550604  17.708754  18.495774  -0.200472  -0.756791   0.370356 
S   32.536173  17.650435  15.410061  -0.408747  -0.048308  -0.757126 
S   29.741795  16.067237  15.326696  -0.059981  -0.111663   0.081210 
Mo   0.097514  19.249477  16.881534   0.032985   0.651178   0.054390 
Mo   2.915044  20.776013  16.854873  -0.578038   0.495444   0.187440 
S    1.942890  19.223645  18.466432   0.155594   0.037242   0.107121 
S    4.741544  20.831551  18.433900   0.213232   0.066254   0.108844 
S    4.721427  20.754722  15.201774   0.036725   0.258629   0.181237 
S    1.926062  19.239984  15.243173   0.087990  -0.411744   0.396944 
Mo   5.646959  19.229723  16.849981   0.433278  -0.682643   0.070384 
Mo   8.443261  20.774374  16.841872   0.093408  -0.338379  -0.105202 
S    7.530493  19.188819  18.398593  -0.380849  -0.130534   0.603057 
S   10.319138  20.769742  18.456607  -0.490819   0.160169  -0.257234 
S   10.245925  20.736926  15.208641   0.182396   0.041728   0.150499 
S    7.494767  19.153846  15.227512   0.034747   0.053916   0.447009 
Mo  11.165742  19.164894  16.837599  -0.272947  -0.497719  -0.378619 
Mo  13.980003  20.727137  16.789084  -0.387834   0.266785  -0.310740 
S   12.992603  19.142900  18.381489   0.614948   0.148155   0.276372 
S   15.853479  20.702359  18.356104  -0.754722   0.466279   0.499493 
S   15.818995  20.732291  15.143121  -0.112308  -0.031920   0.616570 
S   12.993166  19.144464  15.235266   0.104565  -0.065154  -0.374689 
Mo  16.728135  19.137285  16.796702  -0.031502  -0.664540   0.045947 
Mo  19.390537  20.766181  16.879433   0.433932  -0.309596   0.084677 
S   18.479111  19.166423  18.512112   0.178964  -0.030504  -0.654437 
S   21.267550  20.759933  18.445234   0.041530  -0.108133   0.407878 
S   21.246696  20.674444  15.326232   0.434789   0.671782  -0.263330 
S   18.599798  19.165367  15.217602  -0.250960  -0.165963   0.261447 
Mo  22.248316  19.143458  16.908324  -0.526888   0.245451  -0.731179 
Mo  25.083526  20.738799  16.795399   0.372428   0.210107  -0.430365 
S   24.089554  19.260618  18.411747   0.415152  -0.389850   0.785282 
S   26.942939  20.761457  18.470959  -0.199831   0.397457  -0.517042 
S   26.994848  20.745351  15.202007  -0.333791   0.183247   0.346710 
S   24.065124  19.161533  15.230665   0.165847  -0.062308   0.382960 
Mo  27.865859  19.209537  16.867964  -0.011492  -0.538184  -0.387564 
Mo  30.649677  20.835665  16.942089  -0.580016   0.087977   0.001142 
S   29.643063  19.225317  18.493369   0.487168   0.113730   0.448952 
S   32.471085  20.868472  18.567241   0.285479  -0.092742  -0.364668 
S   32.425261  20.949588  15.361914   0.799148  -1.107073  -0.480878 
S   29.786745  19.166578  15.300638  -0.303776   0.530273   0.448271 
Mo   0.121310  22.385955  16.915563  -0.367700   0.541568   0.310646 
Mo   2.885750  24.022099  16.863889   0.379328  -1.017517  -0.484231 
S    2.019538  22.376145  18.530906  -0.157755   0.359400  -0.850939 
S    4.822892  24.007060  18.342577  -0.370508   0.170398   0.381484 
S    4.717777  24.028334  15.183665  -0.197731  -0.737821  -0.033604 
S    1.931967  22.352031  15.292159   0.267392   0.501255   0.164111 
Mo   5.675438  22.383542  16.785887  -0.358641  -0.117657   0.053323 
Mo   8.424227  23.967800  16.768851   0.311749  -0.602648  -0.215495 
S    7.520766  22.375552  18.447146  -0.059287   0.290676  -0.578063 
S   10.315681  24.030953  18.315348  -0.423738  -0.227967   0.584044 
S   10.295116  23.893226  15.159282  -0.218297   0.677687   0.165359 
S    7.493029  22.298187  15.221413   0.305597   0.399107  -0.272437 
Mo  11.177521  22.361701  16.801005   0.376159  -0.559238  -0.122885 
Mo  13.897714  23.960278  16.769936   0.343567  -0.216958  -0.136303 
S   13.037657  22.303983  18.387417   0.029721   0.342959  -0.139379 
S   15.699698  23.977347  18.388788   0.293436   0.027200  -0.085811 
S   15.723976  23.972019  15.155312   0.312107  -0.023042   0.471069 
S   12.992172  22.354753  15.174789   0.296575  -0.317156   0.211524 
Mo  16.668959  22.371876  16.806665  -0.046511   0.094708  -0.332571 
Mo  19.437527  23.906064  16.811438   0.762552   0.574517   0.966495 
S   18.497622  22.406225  18.454445  -0.286616  -0.151300  -0.070732 
S   21.376308  23.888446  18.472269  -0.535712   0.299887  -0.282176 
S   21.314170  23.874140  15.279437   0.190170   0.070115  -0.241289 
S   18.493327  22.323594  15.228735   0.190184   0.112823  -0.105693 
Mo  22.272656  22.316006  16.879924   0.159863  -0.627360  -0.571764 
Mo  25.031515  23.887681  16.785815   0.604159   0.402406   0.038969 
S   24.203522  22.206652  18.442961  -0.558850   1.281458  -0.236485 
S   26.917227  23.991488  18.308534  -0.323951  -0.410927   1.355775 
S   26.963908  24.019393  15.241409  -0.431430  -0.527332  -0.172251 
S   24.106760  22.313317  15.186765  -0.100745  -0.219326   0.330685 
Mo  27.879849  22.371839  16.827666  -0.120833   0.199239   0.053271 
Mo  30.654144  24.064454  16.880076  -0.651444  -0.359458  -0.637456 
S   29.716641  22.502417  18.486549  -0.244812  -0.435111  -0.138606 
S   32.486156  24.068710  18.467747   0.400046   0.099793   0.057898 
S   32.461006  23.945023  15.271957   0.550840   0.373841   0.256368 
S   29.726795  22.383979  15.278025   0.317650   0.411623   0.268411 
