288
Lattice="33.333173 0.034886 0.030875 0.026845 25.652457 -0.000664 0.027097 9e-05 30.586458 " PBC="1 1 1" Properties="species:S:1:pos:R:3:force:R:3" Energy=" -5.286996"
Mo   0.066426  -0.014001  16.839663   0.028573  -0.486137  -0.242469 
Mo   2.842605   1.521836  16.780952   0.281935   0.414566  -0.745711 
S    1.991665  -0.030473  18.364217  -0.756016  -0.090013   0.578464 
S    4.649386   1.531642  18.381469   0.327568   0.428187   0.187380 
S    4.730721   1.465063  15.178378  -0.438249   0.274109   0.030445 
S    1.904861  -0.088652  15.217062  -0.157303   0.301073  -0.368745 
Mo   5.603933  -0.057368  16.852087   0.236592  -0.611759  -0.905722 
Mo   8.352056   1.565792  16.801386   0.611796  -1.098320   0.040973 
S    7.401175  -0.114581  18.427677   0.796007   0.470561  -0.212119 
S   10.204713   1.557913  18.356140   0.714961  -0.011909   0.059505 
S   10.269312   1.486642  15.246205  -0.177108   0.670865  -0.189651 
S    7.474511  -0.031886  15.209135  -0.216772  -0.242612   0.159780 
Mo  11.177777  -0.106795  16.810860  -0.083716  -0.126190   0.027068 
Mo  13.952883   1.506535  16.772536   0.573955   0.275000   0.661584 
S   13.038344  -0.085659  18.370161   0.143622  -0.263919   0.192913 
S   15.814019   1.510564  18.394086  -0.026349   0.058255  -0.229248 
S   15.822637   1.551664  15.224912   0.263487  -0.774930   0.031599 
S   13.041206  -0.113507  15.276258  -0.029028  -0.309557  -0.977638 
Mo  16.756165  -0.145967  16.841807   0.081421   0.690157  -0.327482 
Mo  19.496245   1.554143  16.827789   0.780969  -0.432493   0.124209 
S   18.677896  -0.066733  18.458207  -0.741877  -0.163488  -0.267554 
S   21.429883   1.488657  18.430082  -0.615515   0.225200  -0.107140 
S   21.336471   1.527451  15.216608   0.125473   0.282127   0.011818 
S   18.626043  -0.130775  15.262700  -0.358471   0.233020  -0.001351 
Mo  22.291203  -0.053534  16.777524   0.668676  -0.597332   0.276338 
Mo  25.173417   1.521483  16.729355  -0.259951   0.181355  -0.552676 
S   24.235205  -0.000445  18.329272  -0.559525  -0.365501   0.125405 
S   26.940124   1.499381  18.350518   0.705520   0.389288  -0.232379 
S   27.064804   1.493297  15.099457  -0.505745   0.348669   0.463075 
S   24.160632  -0.016107  15.148711  -0.235809  -0.161544  -0.080189 
Mo  27.890030  -0.100255  16.749361   0.663071   1.163802   0.574416 
Mo  30.632880   1.565354  16.787535  -0.097105   0.163308  -0.018861 
S   29.745270  -0.051777  18.392302  -0.357089   0.138228   0.069534 
S   32.433434   1.686623  18.421120   0.146749  -0.562667  -0.008027 
S   32.462410   1.522378  15.199240   0.233707   0.560278   0.058755 
S   29.780953  -0.106481  15.243650  -0.003554  -0.044627  -0.445885 
Mo   0.019799   3.160545  16.753211   0.606316   0.174413   0.132768 
Mo   2.893420   4.730960  16.739938  -0.783878  -0.053988  -0.454520 
S    1.880477   3.146953  18.315504   0.246138   0.081227   0.358289 
S    4.713523   4.752523  18.296641  -0.107594  -0.633024   1.118217 
S    4.725834   4.690328  15.175498   0.123165   0.441428  -0.437395 
S    1.921716   3.122947  15.175042  -0.188788  -0.104841  -0.115316 
Mo   5.631431   3.104872  16.734291   0.026161   0.058898   0.866402 
Mo   8.418663   4.723446  16.816003   0.126314  -0.034034  -0.597014 
S    7.465679   3.107980  18.395937  -0.304152   0.355519  -0.080799 
S   10.241878   4.672612  18.433702   0.425586   0.294494  -0.128363 
S   10.335104   4.797984  15.207146  -0.685839  -0.678704  -0.157506 
S    7.485753   3.121328  15.172326   0.212164   0.274452  -0.024217 
Mo  11.249879   3.188566  16.780415  -0.954342  -1.396420   0.109642 
Mo  14.006761   4.707088  16.688358  -0.411817   0.448842   0.230558 
S   13.109837   3.134136  18.354606  -0.198515   0.098739  -0.074143 
S   15.816741   4.750759  18.296223  -0.021517   0.172930   0.606633 
S   15.905800   4.770846  15.144268  -0.070950  -0.073500   0.286443 
S   13.041815   3.044152  15.137794   0.160053   0.699999  -0.025385 
Mo  16.755136   3.137751  16.804044   0.218924  -0.156962  -0.969236 
Mo  19.515196   4.736279  16.830544   0.193284   0.119537  -0.902871 
S   18.532208   3.163326  18.412596   0.473283  -0.182358   0.115728 
S   21.354405   4.676359  18.377439   0.467986   0.089621   0.546006 
S   21.442080   4.783570  15.219357  -0.219879  -0.354780   0.800526 
S   18.628383   3.114210  15.153223  -0.321496   0.252228   0.831324 
Mo  22.345845   3.069862  16.840929  -0.532018   0.810130  -0.717184 
Mo  25.102542   4.718196  16.766297  -0.161355   0.553895   0.357619 
S   24.284936   3.071335  18.321589  -0.504154   0.289426   0.843442 
S   26.927310   4.702852  18.337669   0.397598   0.257049   0.217441 
S   26.926199   4.783825  15.180325   0.312900   0.168857   0.091580 
S   24.141963   3.096703  15.228214   0.252489   0.282811  -0.786882 
Mo  27.899864   3.140270  16.734916  -0.724000  -0.235363  -0.094332 
Mo  30.621894   4.817397  16.813164  -0.238427  -0.591021  -0.823331 
S   29.662599   3.155260  18.352729   0.449250   0.191266   0.284424 
S   32.455599   4.889217  18.390518   0.454294  -0.391224  -0.370565 
S   32.511746   4.812309  15.238716  -0.543313   0.175904  -0.627017 
S   29.723814   3.171760  15.142446   0.363629   0.099419   0.474383 
Mo   0.128813   6.408621  16.706431   0.162825  -0.514079  -0.097705 
Mo   2.867717   7.985213  16.775586  -0.337927  -0.241794  -0.389653 
S    1.962121   6.285884  18.326051  -0.152178   0.692782   0.013473 
S    4.659567   8.005272  18.374663   0.530473  -0.423334   0.051824 
S    4.695298   7.985364  15.154604   0.408204   0.105026   0.713417 
S    2.030485   6.362442  15.093616  -0.364508   0.028861   0.741101 
Mo   5.601651   6.329809  16.801745   0.628677   1.004867  -1.050583 
Mo   8.424865   7.923027  16.782716   0.143200  -0.181561   0.775047 
S    7.477119   6.343087  18.381403  -0.060545  -0.125730   0.023779 
S   10.299506   7.919614  18.439094  -0.216523  -0.289534  -0.361424 
S   10.294838   7.926287  15.263158   0.385449   0.112633   0.153846 
S    7.482347   6.327877  15.205202  -0.049970  -0.079329   0.015553 
Mo  11.232522   6.261930  16.836370  -0.326884   1.723430   0.138506 
Mo  13.994479   7.901323  16.793974   0.076534  -0.142719   0.139579 
S   13.085893   6.280373  18.390445   0.201132  -0.285902  -0.376402 
S   15.798035   7.891928  18.456631   0.489115   0.237349  -0.445816 
S   15.829724   7.962499  15.210353   0.414276   0.403340   0.241101 
S   13.037966   6.406609  15.139086   0.019646  -0.830163   0.489437 
Mo  16.801929   6.386868  16.785838  -0.787287  -0.452621  -0.243357 
Mo  19.581757   7.963465  16.869354  -0.038126  -0.184284  -0.715143 
S   18.564987   6.377924  18.408226   0.555873  -0.353141   0.222500 
S   21.378677   7.934423  18.480552   0.349141   0.025049   0.212560 
S   21.533627   7.963953  15.341371  -0.991164   0.176761  -0.513173 
S   18.672119   6.382733  15.238508   0.071498  -0.035458  -0.119728 
Mo  22.371560   6.345502  16.893208  -0.385035  -0.312999  -0.286964 
Mo  25.064672   7.969517  16.855108   0.666101   0.039746   0.312349 
S   24.202301   6.334602  18.450516   0.177162  -0.301703  -0.100645 
S   26.917768   7.942622  18.457640   0.105364   0.177864  -0.001368 
S   26.976837   8.047173  15.250504  -0.671551   0.136193   0.225965 
S   24.191719   6.361275  15.243159  -0.262381   0.138351  -0.030171 
Mo  27.847888   6.426314  16.818119   0.357746  -1.229188  -0.170960 
Mo  30.693459   7.973337  16.792383  -0.455081  -0.184027  -0.229774 
S   29.725547   6.385737  18.412582  -0.170858   0.119655  -0.182998 
S   32.588989   7.985218  18.347192  -0.406847   0.235841   0.318389 
S   32.497974   8.085001  15.139549   0.203782  -0.255416   0.494063 
S   29.669895   6.375240  15.165180   0.381247   0.256270   0.606895 
Mo   0.106466   9.618395  16.778169  -0.298198  -0.348195   0.022365 
Mo   2.814778  11.172316  16.892971   0.942201  -0.130739  -0.749455 
S    1.927519   9.558756  18.415636  -0.169758  -0.302322   0.091476 
S    4.716327  11.121952  18.513206  -0.053148   0.242053  -0.759090 
S    4.623426  11.224393  15.275319   0.678408  -0.198386   0.223301 
S    1.926040   9.600531  15.184121   0.244608   0.195909   0.269728 
Mo   5.660270   9.581536  16.815755  -1.103228  -0.244297   0.153347 
Mo   8.440466  11.145417  16.854426   0.119418   0.215380  -0.502596 
S    7.531940   9.494066  18.395291  -0.265190   0.207850   0.228616 
S   10.274136  11.171549  18.450936   0.114545  -0.286727   0.387105 
S   10.342811  11.129076  15.232194  -0.347185   0.390226   0.723990 
S    7.461227   9.531472  15.266619   0.605495   0.519185  -0.637107 
Mo  11.236368   9.568357  16.892300  -0.062933  -0.671993  -0.607283 
Mo  14.089609  11.092771  16.878025  -0.534158   0.610158   0.162636 
S   13.142136   9.429180  18.413698  -0.379917   0.658687   0.523140 
S   15.920661  11.111631  18.475974  -0.271958   0.529785   0.623207 
S   15.935047  11.140320  15.260968  -0.461743   0.127030   0.136075 
S   13.087293   9.572582  15.287294  -0.159382  -0.122479  -0.341670 
Mo  16.775574   9.577730  16.893933   0.433162  -1.308725  -0.582921 
Mo  19.558361  11.193095  16.837856   0.152183   0.082203   0.347525 
S   18.691640   9.567313  18.429959  -0.486596   0.098858   0.380181 
S   21.331101  11.171581  18.545893   0.184458   0.197010  -0.389711 
S   21.418994  11.238983  15.280657   0.086148  -0.063047   0.243165 
S   18.629700   9.618540  15.307669   0.016714  -0.761635  -0.456986 
Mo  22.274347   9.623705  16.919655   0.975540  -0.398613   0.371439 
Mo  25.158235  11.124910  16.945557  -0.592933   0.920076   0.049492 
S   24.174953   9.596671  18.517374  -0.374428  -0.669530  -0.171734 
S   26.949889  11.160431  18.558028   0.557114  -0.169270  -0.044425 
S   27.002822  11.270887  15.344021  -0.191828  -0.581367   0.026650 
S   24.123431   9.603562  15.334883   0.334317   0.117991  -0.266397 
Mo  27.895009   9.587045  16.909691  -0.353838   0.108702   0.186599 
Mo  30.646625  11.217033  16.899639  -0.169710  -0.098335  -0.062533 
S   29.801124   9.506248  18.438415  -0.133557   0.256196   0.215842 
S   32.527378  11.247696  18.434627  -0.064499  -0.445082   0.520343 
S   32.459988  11.315794  15.315945   0.247958  -0.238329  -0.446442 
S   29.674123   9.603124  15.295181   0.601994   0.255655  -0.172411 
Mo   0.111284  12.828452  16.884501  -0.353561   0.096479  -0.019116 
Mo   2.902003  14.379432  16.862227  -0.568891   0.626133  -0.472567 
S    1.985055  12.813514  18.424634  -0.296989  -0.067540   0.867058 
S    4.717758  14.421466  18.460872   0.246416  -0.723646   0.147233 
S    4.750754  14.386188  15.245241  -0.104374  -0.483463   0.239876 
S    1.909280  12.787507  15.292863   0.461473   0.183187  -0.286281 
Mo   5.650789  12.759593  16.890376  -0.510805   0.296206  -0.246260 
Mo   8.387441  14.416216  16.889820   0.518024  -0.875654   0.849432 
S    7.474450  12.723981  18.484453   0.394753   0.193743  -0.247467 
S   10.305469  14.390256  18.458454  -0.481815  -0.489090   0.430225 
S   10.267976  14.387654  15.361931   0.036162  -0.552490  -0.787197 
S    7.520427  12.812843  15.284384  -0.255026  -0.345198   0.147756 
Mo  11.251274  12.741146  16.906123  -0.578272  -0.082203  -0.512245 
Mo  13.989815  14.350077  16.906171   0.567075  -0.398439  -0.423671 
S   13.131202  12.710086  18.471625  -0.112219  -0.286845   0.247680 
S   15.891386  14.399544  18.484323  -0.375290  -0.479427  -0.108732 
S   15.814158  14.344819  15.277022   0.212430   0.317946   0.471731 
S   13.106080  12.691261  15.332173   0.001457   0.317872  -0.235340 
Mo  16.791309  12.746175  16.889352  -0.212934   0.293050  -0.471376 
Mo  19.545893  14.338738  16.794688   0.208016   0.208667   0.299919 
S   18.648799  12.750857  18.430037  -0.123070   0.239350   0.270690 
S   21.364880  14.341294  18.457886  -0.223764   0.727747   0.511577 
S   21.467482  14.400065  15.248733  -0.101392  -0.318205   0.645474 
S   18.595751  12.757476  15.216995   0.088634  -0.012113   0.122016 
Mo  22.316476  12.792918  16.962755   0.383459  -0.644688  -0.879288 
Mo  25.141457  14.391457  16.989859  -0.053561  -0.394422   0.623335 
S   24.163974  12.703415  18.569658   0.305244   0.365898  -0.360974 
S   26.970131  14.437678  18.617206   0.009890  -0.698009  -0.192450 
S   27.024108  14.396593  15.422204  -0.703777  -0.104129  -0.453482 
S   24.245549  12.763160  15.441783  -0.250228   0.161775  -0.542065 
Mo  27.911294  12.788566  16.984182  -0.344645   0.534161   1.203291 
Mo  30.623778  14.421792  16.873641   0.874392   0.123359   1.249006 
S   29.827021  12.796541  18.574216  -0.500147   0.180620  -0.656989 
S   32.513799  14.436931  18.551195  -0.525517  -0.160544  -0.572149 
S   32.513760  14.397735  15.289463  -0.361074   0.621431   0.350062 
S   29.646240  12.848575  15.341137   0.619970  -0.399374  -0.336183 
Mo   0.055078  15.999382  16.907938   0.135772  -0.151472  -0.195134 
Mo   2.843826  17.540959  16.896499   0.267728   0.747358  -0.079852 
S    1.915687  15.980730  18.484800   0.149043  -0.362966  -0.048293 
S    4.729134  17.506538  18.488043   0.000534   0.424423  -0.456523 
S    4.678850  17.561112  15.309944   0.209054  -0.147839  -0.299808 
S    1.892877  15.989602  15.266261   0.181121  -0.170320   0.425244 
Mo   5.675999  15.940430  16.852990  -0.536495   0.788571   0.424938 
Mo   8.428353  17.575686  16.853248   0.399583  -0.068859   0.790606 
S    7.463905  16.003605  18.523301   0.382579   0.019206  -0.564223 
S   10.377131  17.562789  18.487698  -1.158782  -0.277849   0.161877 
S   10.297536  17.575557  15.282589  -0.190589  -0.561420  -0.297828 
S    7.502234  15.993091  15.280191   0.089013  -0.144402  -0.347339 
Mo  11.199001  15.951083  16.891573   0.979093   0.475693   0.083709 
Mo  14.014360  17.545773  16.927628  -0.556106  -0.242457  -0.204137 
S   13.112908  15.901189  18.511451  -0.607083   0.402606  -0.127920 
S   15.806258  17.556991  18.594394   0.502262  -0.025832  -0.859559 
S   15.846797  17.568635  15.337800  -0.312484   0.125047  -0.502229 
S   13.046918  15.932417  15.291999   0.239274   0.138246   0.366846 
Mo  16.750493  15.992734  16.878792   0.786735  -0.709185   0.279135 
Mo  19.562377  17.483523  16.892247  -0.406275   0.887850  -0.537418 
S   18.653688  15.864121  18.457296  -0.422252   0.405315  -0.070208 
S   21.357700  17.650717  18.487357   0.502119  -0.797182   0.323327 
S   21.418358  17.503101  15.310632  -0.113206   0.278541  -0.236442 
S   18.613888  15.979640  15.220516  -0.196042  -0.304443   0.397858 
Mo  22.319558  15.984279  16.926624   0.553512  -0.363727   0.662798 
Mo  25.106322  17.602296  16.920840  -0.259284  -0.159014   0.464021 
S   24.227073  16.021630  18.567800  -0.652109  -0.088067  -0.348630 
S   26.920390  17.664271  18.604560   0.199629  -0.327092  -0.734269 
S   26.929849  17.572562  15.388561   0.450617   0.026892  -0.405667 
S   24.185423  15.937838  15.389927   0.194316   0.179817  -0.387271 
Mo  27.858699  15.987903  16.991969   0.424696   1.118367   0.359000 
Mo  30.652406  17.670428  16.913634  -0.142025  -0.578549   0.003542 
S   29.741777  16.054915  18.525563   0.098358  -0.163241  -0.193898 
S   32.465310  17.663862  18.573622   0.017674  -0.601128  -0.148753 
S   32.514257  17.641291  15.341971  -0.156326   0.070910   0.071118 
S   29.677543  16.067428  15.338561   0.122583  -0.077646   0.018448 
Mo   0.110762  19.143024  16.975265  -0.178459   1.200707  -1.438956 
Mo   2.837085  20.809106  16.870205   0.178830  -0.256550   0.250820 
S    1.979872  19.165674  18.513647   0.027203   0.149651  -0.063809 
S    4.715155  20.772373  18.444957   0.108787   0.068212  -0.114033 
S    4.694639  20.724072  15.293051   0.006626   0.294826  -0.346822 
S    1.924393  19.192094  15.303069  -0.042275  -0.462920   0.289989 
Mo   5.657987  19.156602  16.851788  -0.271513  -0.438542   0.703653 
Mo   8.361519  20.762003  16.836093   0.917096  -0.092440  -0.160984 
S    7.538492  19.179502  18.442882  -0.539043  -0.116180   0.054500 
S   10.266479  20.753441  18.422905  -0.108748  -0.090109  -0.272692 
S   10.254070  20.673984  15.264312  -0.010544   0.148740   0.022763 
S    7.472991  19.099210  15.196990   0.105632   0.572207   0.540604 
Mo  11.213385  19.078837  16.873391   0.570874   1.507596  -0.063270 
Mo  13.932133  20.750103  16.875399   0.736225  -0.784861  -0.469435 
S   13.027275  19.103197  18.537264   0.202235   0.520126  -0.713006 
S   15.799910  20.764676  18.470718   0.037507  -0.064631   0.021920 
S   15.802934  20.746170  15.234654   0.114437  -0.323354   0.862629 
S   13.093446  19.105934  15.257305  -0.273474   0.082806   0.550227 
Mo  16.733883  19.137852  16.922710   0.176411   0.501276  -0.052505 
Mo  19.611155  20.718584  16.846865  -0.634435   0.053023   0.051813 
S   18.663719  19.127955  18.436511  -0.312800   0.096210   0.359259 
S   21.447201  20.777249  18.445664  -0.119579   0.210417  -0.218240 
S   21.393295  20.657086  15.194231   0.225197   0.687129   0.267427 
S   18.591720  19.132913  15.332835   0.137753  -0.253528  -0.266085 
Mo  22.348408  19.162635  16.870873  -0.798477   0.078079  -0.655030 
Mo  25.100155  20.782505  16.849961  -0.048189   0.311294   0.131962 
S   24.131420  19.216015  18.429694   0.594373   0.043921   0.822763 
S   26.921702  20.861337  18.511193   0.129700   0.224629  -0.705061 
S   26.953332  20.743691  15.291836   0.028749   0.243778  -0.242286 
S   24.175044  19.165739  15.282891   0.237955  -0.108349  -0.259986 
Mo  27.864646  19.216331  16.937080  -0.111892  -0.024446  -0.355811 
Mo  30.694657  20.829086  16.904662  -0.868394  -0.019815  -0.349177 
S   29.693350  19.281395  18.449837   0.497051  -0.226698   0.922244 
S   32.543588  20.875489  18.491463  -0.174246  -0.092876   0.372343 
S   32.514399  20.838383  15.333647   0.324847  -0.747364  -0.089673 
S   29.727632  19.237928  15.280760  -0.095211  -0.063449   0.473647 
Mo   0.111593  22.403024  16.821153  -0.150536   0.631426   0.555867 
Mo   2.847151  23.999418  16.778353   0.915196  -0.736079   0.132440 
S    1.925562  22.460885  18.457336   0.229920  -0.264301  -0.370134 
S    4.713209  23.926695  18.395668  -0.214030   0.573578   0.011228 
S    4.814218  23.996491  15.201834  -0.840841  -0.286940   0.285597 
S    1.908196  22.373504  15.200072   0.411726   0.052694   0.153298 
Mo   5.646985  22.373120  16.820362   0.548976  -0.192174   0.225254 
Mo   8.417864  23.995679  16.790243   0.248130  -0.770607   0.200822 
S    7.525252  22.408049  18.492893  -0.349955  -0.066438  -1.102804 
S   10.312434  23.959901  18.377620  -0.474593  -0.158174   0.074854 
S   10.314157  23.898439  15.175617  -0.495930   0.597857   0.249040 
S    7.489639  22.345904  15.189297  -0.006816   0.296469   0.490293 
Mo  11.192430  22.330484  16.783426   0.335343   0.096114   0.768110 
Mo  14.042354  23.919720  16.786589  -0.593940   0.571911   1.199278 
S   13.066548  22.346363  18.407555  -0.463205   0.450608   0.170271 
S   15.878399  23.916252  18.443804  -0.335304   0.309256  -0.066578 
S   15.844178  23.911931  15.187255   0.545799   0.132310   0.402377 
S   13.061981  22.371287  15.242863  -0.012477  -0.562288  -0.414726 
Mo  16.760058  22.325451  16.862239   0.548369  -0.136707  -0.534176 
Mo  19.564119  23.953062  16.855568   0.483036  -0.139442   0.030072 
S   18.691785  22.301269  18.439246  -0.477371   0.183158  -0.086944 
S   21.478816  23.950973  18.431933  -0.500035   0.479455  -0.418441 
S   21.382930  23.961574  15.202198  -0.257535   0.321495  -0.193473 
S   18.637800  22.299921  15.262955  -0.085177   0.153683   0.240771 
Mo  22.277978  22.398032  16.769976   0.914874  -0.969182   0.554305 
Mo  25.129074  24.041198  16.727756   0.216252  -0.144283   1.002007 
S   24.155657  22.412337  18.369450   0.102963   0.558536  -0.171369 
S   26.960978  24.088255  18.369473  -0.276068  -0.587472   0.002717 
S   27.012676  24.061012  15.134370  -0.415950  -0.910342  -0.033708 
S   24.187478  22.428492  15.273480  -0.174551  -0.716904  -0.961827 
Mo  27.864820  22.445517  16.798345  -0.036011  -0.629928   0.882799 
Mo  30.713922  23.989653  16.864436  -0.725921  -0.253318   0.455155 
S   29.704479  22.391876  18.466672   0.045725   0.579753  -0.178602 
S   32.556406  24.056879  18.495154  -0.244204  -0.019725  -0.375376 
S   32.464859  24.035191  15.255372   0.917610  -0.039014   0.117114 
S   29.741634  22.368131  15.280195   0.278352   0.322246  -0.157196 
