288
Lattice="33.326755 0.034953 0.030849 0.026896 25.660058 -0.000664 0.027075 9e-05 30.529417 " PBC="1 1 1" Properties="species:S:1:pos:R:3:force:R:3" Energy=" -5.284846"
Mo   0.017440  -0.043887  16.758426   0.267487  -0.093266   0.622756 
Mo   2.761275   1.553642  16.745721   0.119787  -0.345095   0.437037 
S    1.883647  -0.051062  18.414224   0.078402  -0.031319  -0.874052 
S    4.635454   1.568638  18.343738  -0.204437  -0.344928  -0.091593 
S    4.539004   1.536369  15.126469   0.560419   0.261409   0.150169 
S    1.831858  -0.083602  15.124793   0.196733  -0.099755   0.773181 
Mo   5.526348  -0.037674  16.710169   1.021475   0.411065   0.357400 
Mo   8.360203   1.528953  16.675385   0.146941   1.031606   0.329585 
S    7.416136   0.037107  18.345692  -0.130578  -0.413903  -0.560777 
S   10.220971   1.613548  18.265333   0.284915  -1.001465   0.079518 
S   10.236394   1.547119  15.103695  -0.044298   0.014939  -0.179089 
S    7.399359   0.027358  15.064704  -0.186674  -0.863004   0.603253 
Mo  11.190670  -0.048458  16.658641  -0.350810   0.112330   0.456084 
Mo  13.969723   1.542673  16.654047  -0.674138  -0.809422   0.029623 
S   13.077102  -0.081633  18.252751  -0.520338   0.123387  -0.210744 
S   15.804869   1.543938  18.228998   0.096761   0.434341  -0.090512 
S   15.764138   1.568775  15.028439   0.189032  -0.300254  -0.302376 
S   13.019980  -0.114525  15.024126   0.164989   0.187376   0.549056 
Mo  16.663483  -0.052673  16.632967   0.672285   0.289753   0.395324 
Mo  19.481946   1.565081  16.740606  -0.717565   0.625671  -0.443682 
S   18.507823  -0.034673  18.245011  -0.079964  -0.090412   0.476281 
S   21.212806   1.600888  18.418456   0.549071   0.314093  -0.095471 
S   21.341818   1.623064  15.211425   0.536245  -0.170393   0.170987 
S   18.605930  -0.036242  15.146322   0.044746  -0.332476  -0.328611 
Mo  22.272691   0.021612  16.870412  -0.357588  -0.124777   0.158928 
Mo  25.018787   1.605797  16.927736   0.572606  -0.300887   0.767975 
S   24.108870   0.012387  18.525625  -0.323437  -0.019393  -0.341428 
S   26.846505   1.592130  18.642297   0.216341  -0.171785  -0.828017 
S   26.946578   1.618928  15.388676  -0.361733  -0.239873   0.110211 
S   24.089073  -0.024582  15.310563   0.721686   0.386958  -0.019396 
Mo  27.829616   0.000349  16.971196  -0.942406  -0.290427   0.488198 
Mo  30.634931   1.639103  16.978215  -0.286471  -0.807431   0.276861 
S   29.722376  -0.027545  18.489356   0.039565  -0.064928   0.611300 
S   32.568525   1.620415  18.490651  -0.476193  -0.534502  -0.098860 
S   32.310345   1.580890  15.261870   0.824402   0.413005   0.091166 
S   29.676993  -0.033787  15.462697  -0.073451   0.684854  -1.297953 
Mo   0.012334   3.173356  16.829388   0.785637   0.139889  -0.583756 
Mo   2.842082   4.759257  16.720229  -0.071220   0.543551   0.201944 
S    1.913525   3.217287  18.347373   0.129625  -0.270026   0.024819 
S    4.745639   4.793826  18.288146  -0.416029   0.046634   0.146073 
S    4.651959   4.775694  15.084801   0.276665  -0.509581   0.296062 
S    1.908115   3.181597  15.166907  -0.864677  -0.181286  -0.029876 
Mo   5.563882   3.128516  16.764560   0.096424   0.428484  -1.463642 
Mo   8.424463   4.768710  16.661450  -0.969706  -0.265987   0.773795 
S    7.460837   3.149793  18.279961   0.189948   0.098737  -0.001201 
S   10.213406   4.695211  18.306072   0.390327   0.544649  -0.303356 
S   10.244816   4.734515  15.098964   0.134373  -0.105920  -0.473702 
S    7.413963   3.179839  15.139226  -0.047564  -0.327168  -0.311603 
Mo  11.176895   3.141070  16.695419   0.110343  -0.064969   0.244070 
Mo  13.888561   4.693816  16.664383   0.651551   0.566323   0.802737 
S   13.101088   3.085418  18.330872  -0.728047   0.226952  -0.594481 
S   15.830553   4.742288  18.196757  -0.962938  -0.200039   0.366632 
S   15.677936   4.702757  15.012725   0.431737   0.655796   0.103817 
S   12.976131   3.067339  15.089378   0.140457   0.571585  -0.330805 
Mo  16.689129   3.176221  16.580766   0.076489  -0.924220   0.765330 
Mo  19.473403   4.788060  16.778198  -0.799262  -0.116935  -0.604626 
S   18.433514   3.133771  18.286602   0.460258   0.234906  -0.051117 
S   21.264572   4.893869  18.364531  -0.334841  -0.927539   0.987577 
S   21.340207   4.806772  15.161499  -0.188950   0.030817   0.413110 
S   18.551890   3.146107  15.043280   0.701129   0.306199   0.791270 
Mo  22.209898   3.260313  16.834311   0.145367  -0.947374   0.402558 
Mo  24.944418   4.804997  16.887793   1.490757  -0.428684  -0.291372 
S   24.052394   3.275637  18.495707  -0.427563  -0.699576   0.022835 
S   26.813159   4.755086  18.476680  -0.304819   0.445790   0.912845 
S   26.883167   4.713773  15.324533  -0.123831  -0.145439   0.264158 
S   24.145613   3.156771  15.363090  -0.555601   0.163706  -1.138447 
Mo  27.822981   3.179689  17.033268   0.387998  -0.433500  -0.915385 
Mo  30.607898   4.799934  16.954948  -0.416414   0.247484  -0.738488 
S   29.769026   3.273363  18.600277  -0.655904  -0.587347  -0.075360 
S   32.461661   4.817525  18.526508   0.266701  -0.137505  -0.423577 
S   32.396402   4.803333  15.307911  -0.041753   0.058336  -0.289764 
S   29.668834   3.140433  15.363237  -0.181029   0.585810   0.396396 
Mo   0.017171   6.352578  16.833591   0.232936   0.252251  -0.588090 
Mo   2.835213   7.919531  16.765360   0.883419   0.166714   0.283293 
S    1.913752   6.314571  18.342611   0.245464   0.119247   0.209128 
S    4.791550   7.932322  18.287035  -0.553989  -0.113550   0.117079 
S    4.699835   7.994239  15.099858  -0.384744   0.259634   0.282325 
S    1.870224   6.391364  15.157325  -0.293920  -0.392450   0.188140 
Mo   5.635510   6.367061  16.633337  -0.190850  -0.185483   0.722732 
Mo   8.416156   8.003053  16.688572  -0.163871  -0.356562  -0.857462 
S    7.485608   6.417929  18.225063   0.030852  -0.497269   0.378097 
S   10.256750   7.932397  18.264899  -0.287670  -0.274387   0.337976 
S   10.240176   7.883583  15.038865  -0.074203   0.489588   0.245174 
S    7.456291   6.358657  15.092604   0.552203   0.283078  -0.390256 
Mo  11.136598   6.335545  16.656992   0.837760  -0.152376   0.774028 
Mo  13.969464   7.942887  16.715243  -0.459646  -0.093782   0.048003 
S   12.958661   6.335023  18.337244   0.404773  -0.210869  -0.978736 
S   15.831049   7.925825  18.285920  -0.586486  -0.300994   0.287978 
S   15.800149   7.983060  15.097238  -0.110961   0.010859   0.093015 
S   13.100952   6.381864  15.112618  -0.980660  -0.351834  -0.152076 
Mo  16.702117   6.327347  16.656618  -0.161447   0.608027  -0.507675 
Mo  19.438111   7.977949  16.850508  -0.185210   0.381251  -0.543295 
S   18.394866   6.404049  18.398688   0.933608  -0.651305  -0.468613 
S   21.289127   8.036032  18.476306  -0.245272  -0.359942  -0.411800 
S   21.250979   7.965352  15.195740   0.075105   0.215296   0.496295 
S   18.620609   6.378464  15.153050  -0.289975   0.080136   0.170930 
Mo  22.183423   6.404251  16.830200   0.090600   0.454467  -0.509669 
Mo  24.963643   7.956701  16.832669  -0.002471  -0.049959   0.286673 
S   24.017351   6.360436  18.431960  -0.097580   0.657865   0.436852 
S   26.828257   7.949221  18.421188  -0.193923  -0.124426   0.392093 
S   26.898829   7.930232  15.283596  -0.277982  -0.357621   0.066104 
S   24.013656   6.336121  15.262618   0.408356   0.413807  -0.371246 
Mo  27.777478   6.302296  16.912839   0.389786   1.276213  -0.768238 
Mo  30.597114   7.960843  16.918126  -0.295752   0.018291  -0.186561 
S   29.601755   6.394680  18.525754   0.267920  -0.172447  -0.084379 
S   32.444652   7.928986  18.516883   0.079466  -0.016964   0.036421 
S   32.394754   8.112629  15.279910   0.324746  -1.374977   0.230168 
S   29.664051   6.367089  15.291095  -0.019632  -0.174124   0.634398 
Mo   0.072016   9.484603  16.914923  -0.336128   0.797759  -0.467944 
Mo   2.855590  11.145108  16.876121   0.154377  -0.439089   0.313478 
S    1.969184   9.459956  18.451778   0.044483   0.153863   0.027149 
S    4.835213  11.108011  18.405434  -0.775473   0.284825   0.077247 
S    4.681806  11.230871  15.259711  -0.136879  -0.165023  -0.453793 
S    1.885769   9.537155  15.286323   0.100564   0.482957  -0.287885 
Mo   5.655342   9.577861  16.737062   0.269364  -0.193247  -0.229030 
Mo   8.447935  11.161576  16.698952  -0.221396  -0.031979   0.286080 
S    7.532027   9.584589  18.316542  -0.102190  -0.117514  -0.072615 
S   10.282871  11.146930  18.324373   0.011858  -0.375894  -0.424932 
S   10.248309  11.090171  15.081991   0.319614   0.716268   0.173144 
S    7.473129   9.637995  15.099012  -0.048632  -0.506750   0.040811 
Mo  11.130604   9.496062  16.679487   0.733384   0.475376   0.156530 
Mo  13.931014  11.168507  16.778716  -0.238664  -0.401757  -0.326952 
S   12.983664   9.462581  18.312622   0.012798   0.469368  -0.126498 
S   15.771449  11.131758  18.387155  -0.138687   0.442183  -0.270231 
S   15.717201  11.245000  15.135071   0.380419  -0.416943   0.434554 
S   12.978040   9.587415  15.113089   0.627889  -0.224596   0.390731 
Mo  16.644768   9.577847  16.753380   0.723656   0.424779  -0.053736 
Mo  19.449090  11.199930  16.814235  -0.289731  -0.870094  -0.499730 
S   18.531999   9.639068  18.422016  -0.545518  -0.475557  -0.356953 
S   21.238675  11.203376  18.421494   0.388441  -0.296333  -0.220920 
S   21.229260  11.101472  15.147787   0.307804   0.369950   0.372993 
S   18.466949   9.577390  15.215248   0.714457   0.116133   0.125637 
Mo  22.202416   9.566886  16.820960  -0.909763   0.443443  -0.209779 
Mo  25.010204  11.133199  16.828717   0.129210  -0.439330   0.750780 
S   23.966403   9.577175  18.446544   0.956918  -0.076005  -0.188246 
S   26.858108  11.106494  18.439996  -0.121962   0.387867   0.028790 
S   26.913806  11.087477  15.234337  -0.486097   0.199494  -0.011357 
S   24.031148   9.543799  15.249968   0.377976   0.201561  -0.303813 
Mo  27.794459   9.538528  16.869480   0.601586  -0.069740  -0.015452 
Mo  30.590345  11.181765  16.868946   0.145325  -0.142312   0.422963 
S   29.674049   9.569490  18.471940  -0.229842   0.236712   0.147399 
S   32.429512  11.118796  18.473959   0.141137   0.476553   0.318276 
S   32.454021  11.129143  15.299951   0.328460   0.184615   0.258975 
S   29.713765   9.574390  15.336867  -0.541405  -0.207249  -0.574326 
Mo   0.060269  12.702368  16.866109  -0.433060   0.493912  -0.194863 
Mo   2.816325  14.381193  16.959995   0.425173  -1.054123  -1.115085 
S    1.872442  12.693727  18.496212   0.317823   0.165612  -0.065503 
S    4.752369  14.332160  18.516061  -0.387410   0.127106  -0.365685 
S    4.681683  14.348577  15.289700  -0.458950   0.409028  -0.034342 
S    1.929621  12.726336  15.292885  -0.067862   0.394492   0.328114 
Mo   5.655143  12.786012  16.824772  -0.044112  -0.317672   0.095515 
Mo   8.457150  14.334214  16.733367  -0.588815   0.628131   0.663206 
S    7.530144  12.708826  18.308812   0.364780   0.289642   0.615497 
S   10.258825  14.305833  18.316084   0.527983   0.325882   0.081006 
S   10.278462  14.363519  15.136379   0.217863   0.170474   0.001984 
S    7.513995  12.810427  15.178071  -0.601308  -0.348554  -0.527007 
Mo  11.220337  12.729735  16.710251  -0.705839   0.085835   0.557521 
Mo  13.948382  14.386224  16.788705  -0.138091   0.733934   0.008795 
S   13.055772  12.755884  18.362729  -0.450940   0.059466   0.132745 
S   15.745838  14.434296  18.393240   0.447362  -0.644155   0.081139 
S   15.798384  14.365678  15.180664   0.064550   0.551242   0.002872 
S   13.036803  12.838066  15.213804   0.426983  -0.604445  -0.866341 
Mo  16.678740  12.799181  16.780041  -0.080341  -0.310137   0.741564 
Mo  19.516829  14.403461  16.787370   0.140427  -0.352415  -0.222928 
S   18.565778  12.824319  18.354613  -0.377449   0.079653   0.477815 
S   21.387265  14.322815  18.384761  -0.598690   0.107592   0.101735 
S   21.314310  14.414044  15.130748   0.521410  -0.128448   0.697811 
S   18.536870  12.779057  15.255600   0.121950   0.365619  -0.784622 
Mo  22.158607  12.723920  16.749205   1.096174   0.517558   0.575589 
Mo  25.061735  14.402041  16.890103  -0.607247   0.010130  -0.064106 
S   24.068224  12.746340  18.418402  -0.310296  -0.041162  -0.310854 
S   26.903150  14.337814  18.443360  -0.001903  -0.292764   0.246675 
S   26.892165  14.311478  15.254149  -0.191813   0.440238   0.014467 
S   24.122255  12.775181  15.372003  -0.097032   0.268466  -1.523121 
Mo  27.784781  12.706930  16.824926   0.599911   0.307241   0.507062 
Mo  30.580217  14.391911  16.845815  -0.632993  -0.500501   0.504744 
S   29.621817  12.750844  18.473940   0.120824   0.250512  -0.485863 
S   32.383283  14.399927  18.428228   0.438957  -0.262026   0.373840 
S   32.458175  14.400625  15.287727   0.267946  -0.267006   0.272460 
S   29.682831  12.761144  15.229229  -0.117976   0.063203   0.411288 
Mo   0.055548  15.982056  16.870758  -0.382534  -0.349218  -0.740329 
Mo   2.785601  17.534034  16.872401   0.956789   0.064221   0.058070 
S    1.827704  15.960801  18.477674   0.394035   0.151882   0.541501 
S    4.697574  17.567723  18.495070  -0.115312   0.063607  -0.677009 
S    4.714147  17.545065  15.315410  -0.358267   0.163327  -0.102296 
S    1.932285  15.929016  15.250755  -0.250819  -0.131403   0.631875 
Mo   5.613335  15.925891  16.872094  -0.049063   0.434539   0.272871 
Mo   8.405981  17.546530  16.801130  -0.546170   0.649892   0.589504 
S    7.489445  15.908948  18.365830   0.520304   0.011519   0.343320 
S   10.269419  17.552547  18.364226   0.089073   0.660101  -0.003060 
S   10.157420  17.553210  15.195420   0.811325   0.580864  -0.292278 
S    7.432242  15.967726  15.247000   0.032747  -0.152098  -0.452533 
Mo  11.194935  16.003803  16.760614  -0.702100  -0.954614   0.098635 
Mo  13.955918  17.562738  16.820129  -0.275257   1.509952  -0.535478 
S   12.984827  16.003023  18.370796   0.216150  -0.338529   0.359830 
S   15.745107  17.578401  18.436535   0.612259  -0.124005  -0.072811 
S   15.830364  17.612698  15.232298  -0.106416  -0.336331   0.039930 
S   13.017536  16.049537  15.216088   0.384067  -0.460632  -0.565216 
Mo  16.749901  15.968768  16.810985  -0.802989   0.523592  -0.541574 
Mo  19.558967  17.563111  16.866560   0.192308   0.548734  -0.674109 
S   18.580634  15.950142  18.334850   0.060340  -0.027383   1.410934 
S   21.319301  17.510269  18.509425   0.545830   0.134613  -0.141551 
S   21.453752  17.668803  15.276556  -0.431002  -0.741176   0.235601 
S   18.645485  16.065074  15.262406  -0.476283  -0.456485  -0.827376 
Mo  22.287292  15.966846  16.858938  -0.124064   0.173117  -0.610806 
Mo  25.061279  17.641206  17.021328  -0.299911  -0.465201  -0.302579 
S   24.079382  15.984446  18.502760   0.279551  -0.307029   0.121113 
S   26.948808  17.484806  18.589835  -0.376287   0.513321  -0.335070 
S   26.862977  17.545173  15.402534  -0.253070   0.655936  -0.727007 
S   24.169023  16.098445  15.314181   0.045210  -0.426886   0.281433 
Mo  27.788479  15.952461  16.873217   0.570928  -0.508287   0.479474 
Mo  30.601305  17.562371  16.883945  -0.134495  -0.045855  -0.212168 
S   29.607205  15.973733  18.495404   0.576746  -0.226282  -0.402107 
S   32.414021  17.631930  18.495402   0.373001   0.032686  -0.352784 
S   32.482593  17.569476  15.230772  -0.342900   0.257089   0.656447 
S   29.654962  15.988088  15.293504  -0.056946  -0.107391  -0.324997 
Mo   0.020828  19.200341  16.808621   0.097421  -0.953048  -0.049386 
Mo   2.843876  20.750797  16.834877   0.316137  -0.642279   0.202927 
S    1.862777  19.148113  18.418820   0.022402   0.334462   0.127574 
S    4.659617  20.804613  18.475715   0.423466  -0.142048  -0.502567 
S    4.724744  20.710869  15.232698  -0.325677   0.284441   0.152315 
S    1.911239  19.120920  15.252234  -0.076118   0.292057  -0.011934 
Mo   5.645024  19.192952  16.864740  -0.483309  -0.604233   0.494182 
Mo   8.350832  20.836042  16.816960   0.083335   0.317102   0.307881 
S    7.515202  19.184230  18.417630  -0.023526  -0.060954   0.040088 
S   10.238299  20.860567  18.350943   0.245652  -0.012600  -0.157016 
S   10.111962  20.820335  15.192063   0.740515  -0.054887  -0.447402 
S    7.467334  19.193366  15.236655  -0.085453  -0.184475   0.132435 
Mo  11.163475  19.248316  16.751333  -0.583159  -1.030301   0.472118 
Mo  13.982350  20.814251  16.728387  -0.017781   0.064749   0.638604 
S   13.042183  19.256494  18.368790  -0.197475  -0.209973  -0.330260 
S   15.866900  20.833588  18.335495  -0.452615   0.493699   0.027733 
S   15.850422  20.741685  15.171519   0.170776   0.235873   0.110905 
S   13.020461  19.236663  15.191546   0.153847  -0.683770  -0.143824 
Mo  16.743676  19.165191  16.845293   0.062467   0.176654  -0.673248 
Mo  19.537050  20.812811  16.882794  -0.286333   0.194606  -0.506600 
S   18.590788  19.129502  18.381135  -0.006798   0.644321   1.049069 
S   21.325419  20.822230  18.548863   0.087924  -0.279118  -0.357663 
S   21.413775  20.753204  15.312394  -0.122274   0.227412   0.238240 
S   18.650086  19.177100  15.293763  -0.250263   0.163265  -0.221849 
Mo  22.282460  19.183507  16.949287   0.606494   0.305451   0.609046 
Mo  25.055020  20.836086  16.966469   0.387719  -0.420563   0.344770 
S   24.125643  19.267771  18.634665  -0.074056  -0.340994  -0.692973 
S   26.942773  20.809005  18.586243  -0.430717   0.010698  -0.205109 
S   26.882923  20.852549  15.404379   0.146813  -0.255018  -0.250700 
S   24.185441  19.212472  15.354650  -0.361178   0.101254   0.489443 
Mo  27.765883  19.164655  16.964034   1.011506   0.209163  -0.442480 
Mo  30.569443  20.765873  16.920941  -0.035377   0.564864  -0.728228 
S   29.655263  19.153538  18.455828   0.195888   0.070483   0.696229 
S   32.470057  20.789481  18.460243  -0.071240   0.322612   0.092565 
S   32.373775  20.832307  15.261008   0.227767  -0.037177   0.270460 
S   29.646082  19.114764  15.288485  -0.335737   0.648628   0.522893 
Mo   0.085741  22.379406  16.823319  -0.303587  -0.525634  -0.890105 
Mo   2.847733  23.962197  16.799222  -0.399871   0.662640  -0.193685 
S    1.929709  22.374895  18.404386   0.122481   0.090678   0.230728 
S    4.748007  24.018744  18.357381  -0.565532   0.009694   0.044765 
S    4.644872  24.014789  15.163491   0.154845  -0.733560   0.098382 
S    1.962750  22.280718  15.241818  -0.417394   0.588142  -0.285624 
Mo   5.605731  22.370897  16.809087  -0.541394   0.735950   0.230391 
Mo   8.364508  24.065425  16.756451  -0.250457   0.075214  -0.176416 
S    7.447713  22.491740  18.439326   0.255486  -0.280686  -0.557163 
S   10.249398  24.065872  18.282729   0.434985  -0.154106  -0.049364 
S   10.190523  23.996411  15.102845   0.278588   0.001910   0.293693 
S    7.375738  22.463805  15.238373   0.606871  -0.567492  -0.502968 
Mo  11.206656  22.404329  16.694992  -1.349223   0.376361   0.162189 
Mo  13.982833  23.955135  16.658521  -0.700243   0.285020  -0.100023 
S   12.969553  22.390089  18.322927   0.849534   0.335533  -0.317867 
S   15.723676  24.073370  18.295231   0.718742  -0.307968  -0.177154 
S   15.849738  23.990906  15.062961  -0.364558  -0.228597  -0.200834 
S   13.037404  22.355043  15.080008   0.009469  -0.031203   0.081996 
Mo  16.755187  22.471841  16.708148   0.086631  -0.997436   0.702206 
Mo  19.568070  24.000511  16.756566  -0.729569   0.395311  -0.222548 
S   18.585596  22.530027  18.382299  -0.297687  -0.603868  -0.164352 
S   21.350470  24.069058  18.431636   0.177284  -0.296865  -0.004581 
S   21.446654  24.038508  15.268270   0.351943  -0.582869   0.069054 
S   18.608065  22.370273  15.149993   0.620514   0.097360   0.483809 
Mo  22.323245  22.355891  16.932500  -0.393395   1.382915  -0.097010 
Mo  25.091959  24.072311  16.925665  -0.383423  -0.133567   0.288384 
S   24.176868  22.396752  18.549418  -0.340931   0.832837  -0.111479 
S   26.871614  24.064856  18.591772   0.343997   0.134199  -0.448648 
S   26.933395  24.090876  15.249299  -0.021336  -0.067257   1.431201 
S   24.164534  22.461003  15.382068   0.143645  -0.452587  -0.446971 
Mo  27.776695  22.457454  16.986889   0.816735   0.104384  -0.525622 
Mo  30.622657  23.978982  16.876156   0.680370   0.744940   0.541836 
S   29.730004  22.484852  18.480793  -0.525977  -0.994685   0.642762 
S   32.540026  23.999949  18.385057  -0.403464   0.446529   0.592955 
S   32.424507  24.015187  15.222569   0.238483  -0.251363   0.226365 
S   29.620419  22.416515  15.363970  -0.194903  -0.380371  -0.334941 
