64
Lattice="10.8 0 0 0 10.8 0 0 0 10.8 " PBC="1 1 1" Properties=species:S:1:pos:R:3:force:R:3 Energy="0"
Si   -4.120547070700000e-02   7.665805984200000e-02   2.500114592000000e-02  6.68275586e-01   1.65985169e-01  -8.22609603e-01
Si    4.167673087100000e-02   2.667627962800000e+00   2.757245362000000e+00 -1.70319441e+00   1.17393101e+00  -7.60105067e-01
Si    2.739045175200000e+00  -4.008001472700000e-02   2.680762621200000e+00 -3.95866970e-01   6.09274374e-01  -1.31945722e-01
Si    2.698179278900000e+00   2.727533226700000e+00   1.511797245600000e-02 -1.01029027e+00  -5.03139273e-01  -5.03274952e-01
Si    1.299205202300000e+00   1.381469252600000e+00   1.399215420700000e+00  1.43393170e+00  -5.43282536e-01  -5.42302515e-01
Si    1.340048899700000e+00   4.025381460200000e+00   4.073652249700000e+00  4.84610608e-01   2.94734156e-01   3.17731793e-01
Si    4.038252190700000e+00   1.298636775300000e+00   4.099641332900000e+00  9.87711545e-02   5.53664392e-01  -3.62431138e-01
Si    4.048514039600000e+00   4.015441498700000e+00   1.304892029800000e+00  5.87793251e-01   6.82553820e-01   6.43070812e-01
Si    5.345183724600000e+00  -5.663074429900000e-02  -5.409754484900000e-02  6.98235716e-01   2.09503428e-01   5.12068128e-01
Si    5.385803432400000e+00   2.689156015300000e+00   2.720855218300000e+00  3.53071797e-01  -3.44580458e-01  -3.10563913e-01
Si    8.080029561200000e+00  -2.683423728400000e-02   2.659767764900000e+00  5.96672017e-01  -2.93948830e-01  -1.01649897e-02
Si    8.088123574200001e+00   2.721706210300000e+00  -1.878246965800000e-02  1.62886405e-02  -5.40862758e-01  -1.95055021e-01
Si    6.774829429600000e+00   1.321973810800000e+00   1.287045137200000e+00 -1.12305333e+00   9.51146731e-02   3.93381324e-01
Si    6.769722533200000e+00   4.090049735100000e+00   4.043583535200000e+00 -1.60832305e-01  -7.15575508e-01  -5.66441662e-01
Si    9.465347920499999e+00   1.308795630300000e+00   4.019555686000000e+00 -1.08764174e-01  -7.71809439e-02   6.57730754e-01
Si    9.353746664599999e+00   4.065988150200000e+00   1.339308760300000e+00  2.00020550e+00  -5.67289379e-01   4.69213967e-01
Si   -1.329847121700000e-02   5.447164017000000e+00   3.791888372100000e-02 -3.38977670e-01  -1.28436980e-01   6.55648669e-01
Si    2.027523343500000e-02   8.152424688500000e+00   2.733901933500000e+00 -2.25565348e-01  -1.43987263e-01   1.71224550e-01
Si    2.690887976400000e+00   5.349870970900000e+00   2.687682379200000e+00  3.64686083e-01  -2.42316145e-01   2.61228385e-01
Si    2.610574108500000e+00   8.118086069500000e+00  -1.785710299900000e-02  4.32493162e-01  -6.49222847e-01   4.47521066e-01
Si    1.349640897400000e+00   6.755551719400000e+00   1.434579293300000e+00 -2.19298508e-01   1.99041883e-01  -7.30732069e-01
Si    1.409502285400000e+00   9.486717498200001e+00   4.077321165300000e+00  4.20257281e-02  -6.17402607e-01  -2.88422029e-01
Si    4.095543847600000e+00   6.634607855100000e+00   4.051969570400000e+00 -6.97546338e-01   9.00321117e-01  -7.89556113e-02
Si    4.022559832100000e+00   9.362800174000000e+00   1.323662397800000e+00  4.68618568e-01   3.41424721e-01   2.57614383e-01
Si    5.436194489900000e+00   5.410643588600000e+00  -1.921619029500000e-02 -1.12293873e+00   1.22450330e-01   4.24328635e-01
Si    5.399298194500000e+00   8.056814203700000e+00   2.745772495500000e+00 -5.18818112e-01  -2.15761706e-01  -6.39018359e-01
Si    8.079946712000000e+00   5.416378604400000e+00   2.658166433200000e+00  3.37531100e-01   2.68583649e-01   1.10932526e+00
Si    7.960783475300000e+00   8.140347101800000e+00   4.338086468000000e-02  1.60299964e+00  -1.10893417e-01  -4.40257800e-01
Si    6.726412873800000e+00   6.728025403300000e+00   1.381298802800000e+00 -4.17825310e-01   4.00079815e-01  -2.08349842e-01
Si    6.744243962400000e+00   9.400282272900000e+00   4.031750322500000e+00  7.05598347e-01   1.70017505e-01   2.72266782e-01
Si    9.456409770400001e+00   6.753381643100000e+00   4.077840270500000e+00 -2.57253191e-01   3.06998830e-01  -8.78214489e-01
Si    9.509599047200000e+00   9.463967007999999e+00   1.279710411300000e+00 -1.34180695e+00  -4.63607745e-01   1.00271903e+00
Si    1.078807544500000e-01   2.337584411300000e-02   5.419594891600000e+00 -1.44457943e+00  -1.76131146e-01  -4.15407181e-01
Si   -3.644414995200000e-02   2.748563998300000e+00   8.087935493900000e+00  6.25213073e-01  -4.61981663e-02   1.33427320e-01
Si    2.757764465700000e+00  -5.536365232900000e-02   8.075753903900001e+00 -6.10957918e-01   1.06923890e+00   1.03770782e-01
Si    2.669600194900000e+00   2.673962096000000e+00   5.470190284500000e+00  4.38155229e-01   6.57108221e-02  -9.00663629e-01
Si    1.345198173000000e+00   1.357298004900000e+00   6.780722856000000e+00  3.59699445e-01  -6.89884238e-02   9.33761393e-01
Si    1.308361249100000e+00   4.132712923700000e+00   9.476307212700000e+00  4.80555222e-02  -1.14477024e+00   9.60335148e-03
Si    4.032028161600000e+00   1.343664932200000e+00   9.463513296400000e+00 -1.82089244e-01   3.73523797e-03  -2.85687109e-01
Si    4.044690911100000e+00   4.001573711700000e+00   6.775382881500000e+00  2.34811760e-01   7.82656838e-01  -1.48723551e-01
Si    5.461188701000000e+00  -2.244018654600000e-02   5.376270784600000e+00 -4.67159284e-01   5.61494818e-02   4.36241890e-01
Si    5.395318109400000e+00   2.679223435800000e+00   8.123866214100000e+00  1.65504350e-01   2.69538671e-01   3.37459175e-01
Si    8.113417978099999e+00   1.306411267500000e-02   8.021651673899999e+00  6.49776996e-02   1.61211686e-01   5.73570903e-01
Si    8.096626586999999e+00   2.713706820100000e+00   5.358100697600000e+00  2.35917120e-01  -4.17118589e-01   3.96179963e-02
Si    6.746357679300000e+00   1.377638269800000e+00   6.752275959300000e+00  1.28368770e-01  -6.31622299e-02  -5.53190244e-01
Si    6.747776522500000e+00   4.065212788100000e+00   9.490896812700001e+00  2.27540123e-01  -2.39518259e-01  -1.30239774e+00
Si    9.435338868100001e+00   1.376832141200000e+00   9.404550071099999e+00 -2.69033886e-01   3.62874019e-02   2.24708819e-01
Si    9.464510451400001e+00   4.056078405600000e+00   6.680638590400000e+00  1.77589446e-01  -4.11858946e-02  -2.70427830e-03
Si    2.036806625000000e-02   5.451009812200000e+00   5.382738736000000e+00 -1.01022614e-01  -6.99244906e-01   1.31082119e-01
Si    1.407981316100000e-03   8.174425582300000e+00   8.166209627800001e+00 -2.27409106e-01  -3.98787255e-01  -2.34343171e-01
Si    2.652646178000000e+00   5.380448145600000e+00   8.096153906000000e+00  5.09052008e-01   4.46830416e-01  -1.40171179e-01
Si    2.751588150000000e+00   8.081732931499999e+00   5.377308018000000e+00 -4.68836691e-01  -7.10992749e-01   6.53383711e-02
Si    1.307941318600000e+00   6.771436867100000e+00   6.771375670800000e+00  6.35164604e-01   5.65979790e-01   2.14331333e-02
Si    1.361546944700000e+00   9.544812891599999e+00   9.482327307900000e+00 -5.36414933e-01  -1.60651598e-01  -1.22203629e-01
Si    3.994583790100000e+00   6.753638203300000e+00   9.464973320000000e+00  4.45725126e-01   5.59022602e-02  -4.00546379e-01
Si    4.062551159700000e+00   9.431811110100000e+00   6.703527646100000e+00  6.62357341e-01   2.03343233e-03   5.95390775e-02
Si    5.450025386700000e+00   5.378025834100000e+00   5.392877653600000e+00 -2.34675694e-01  -2.84838850e-01   1.03085199e+00
Si    5.400620050200000e+00   8.105395119400001e+00   8.078538055799999e+00  8.48579170e-02  -7.97444727e-01  -2.59725505e-01
Si    8.161173886000000e+00   5.346147332200000e+00   8.070659665499999e+00 -3.47916158e-01   8.59780973e-01   8.45491160e-01
Si    8.109518490799999e+00   8.076754078500000e+00   5.442253556100000e+00  5.99829927e-01   8.91700408e-01  -1.16806184e+00
Si    6.846967524000000e+00   6.747059496200000e+00   6.712256979700000e+00 -1.44354351e+00  -6.35892791e-01   1.21379523e+00
Si    6.759333640600000e+00   9.468668657900000e+00   9.370400243200001e+00 -4.57719791e-01   1.42491241e-01   3.00882813e-01
Si    9.432553654399999e+00   6.789131377500000e+00   9.529613628800000e+00 -5.35257107e-01   1.77250255e-01  -7.38867651e-01
Si    9.472481999399999e+00   9.470463305099999e+00   6.720488207700000e+00  4.34018929e-01  -3.77624737e-02   8.58888250e-02
