64
Lattice="10.8 0 0 0 10.8 0 0 0 10.8 " PBC="1 1 1" Properties=species:S:1:pos:R:3:force:R:3 Energy="0"
Si    3.138632795700000e-02  -1.505149296900000e-02  -6.234971987600000e-02 -3.14871593e-02  -6.45114400e-01   1.03911676e+00
Si   -8.162174418100000e-03   2.709089927200000e+00   2.658223911800000e+00  8.46197784e-01  -1.07589128e-01   4.62804861e-01
Si    2.674242204400000e+00   1.436637510700000e-02   2.706877397000000e+00  1.29696007e-01  -4.79980602e-01   3.06734936e-01
Si    2.724197985200000e+00   2.660989931000000e+00  -4.146190472900000e-02 -5.16979019e-02   3.33374268e-01   5.39343762e-01
Si    1.387625746700000e+00   1.321650458000000e+00   1.338388734800000e+00 -7.27269066e-01   3.98198178e-01  -4.47771104e-01
Si    1.352331782800000e+00   4.109003317100000e+00   4.017435188000000e+00 -5.86437201e-02  -7.10061441e-01   4.13871579e-02
Si    4.059353447500000e+00   1.366710313400000e+00   4.005966819500000e+00 -2.52941275e-01  -9.90285704e-02   4.99879277e-01
Si    4.007258114600000e+00   4.065300174500000e+00   1.364316774200000e+00  3.22105416e-01  -9.03120697e-02  -2.14330019e-01
Si    5.390367892700000e+00   4.937065254600000e-02  -1.984813762700000e-02  1.90751724e-01  -3.23315151e-01   4.49572366e-01
Si    5.399572489900000e+00   2.733262196700000e+00   2.708225443100000e+00 -7.70484375e-02   2.93592856e-01  -8.70003586e-02
Si    8.117791799100001e+00   4.776498756000000e-03   2.751044046400000e+00 -3.33759986e-01   1.92673385e-01  -2.84518569e-01
Si    8.131981051800000e+00   2.705432008700000e+00  -2.917664495200000e-02 -5.40273141e-01  -9.34679985e-02   2.20429341e-01
Si    6.737080503900000e+00   1.394741426100000e+00   1.379342636600000e+00  6.21476609e-01  -4.29822308e-01  -3.91620928e-01
Si    6.753813437400000e+00   4.075302086200000e+00   4.064368056100000e+00  9.34331857e-02   1.52683795e-01   1.35697124e-01
Si    9.478366953600000e+00   1.418738370000000e+00   4.086753552000000e+00 -6.66650842e-01  -4.15655687e-01  -4.53694085e-01
Si    9.464359150200000e+00   4.027363335400000e+00   1.338012260500000e+00 -2.99469047e-01   4.78367211e-01  -1.22336884e-01
Si    3.156662048200000e-02   5.357227685400000e+00   9.789087772400000e-03  1.28622763e-02   1.97610558e-01  -8.29076546e-01
Si   -3.040217566400000e-02   8.002714699500000e+00   2.662246653800000e+00  1.82699250e-01   9.45177322e-01   7.90744415e-02
Si    2.706270224600000e+00   5.468168311900000e+00   2.711145386700000e+00  3.03937260e-02  -1.22088832e-01  -2.65356618e-01
Si    2.771198320400000e+00   8.100564921200000e+00   1.316401647100000e-03 -3.66651056e-01   2.89891163e-01   4.26371512e-02
Si    1.383732504600000e+00   6.766384618100000e+00   1.313138465100000e+00 -1.13213792e-01  -3.86984909e-01  -5.76348129e-02
Si    1.293383195000000e+00   9.408248079000000e+00   4.013954270600000e+00  1.50522595e-01   2.79494293e-01   4.73701063e-01
Si    4.060100006500000e+00   6.848068447700000e+00   4.009341766000000e+00 -2.55703010e-01  -7.94910234e-01   5.95050957e-01
Si    4.056730940800000e+00   9.495196074400001e+00   1.382176614000000e+00  8.95276802e-02  -4.05755515e-02  -5.77412342e-01
Si    5.408218586300000e+00   5.402592878300000e+00   2.981169008200000e-02  8.20627976e-02  -3.23502933e-01   3.63822455e-02
Si    5.412320052500000e+00   8.100655998400001e+00   2.659078283800000e+00 -3.56081215e-02   4.83439096e-01  -3.34035863e-02
Si    8.121149353100000e+00   5.427949804800000e+00   2.666292391900000e+00 -3.92171971e-01  -6.86361093e-01   2.46690530e-01
Si    8.145292023200000e+00   8.055715902199999e+00   2.654549848100000e-02 -4.74101701e-01   1.16096415e-01  -6.30034985e-01
Si    6.754852442700000e+00   6.767434999000000e+00   1.338434391300000e+00  1.62553609e-01  -3.63843313e-01   1.16067533e-01
Si    6.688719546600000e+00   9.427700318299999e+00   4.047260337100000e+00  8.27802590e-01   3.43869615e-01   2.20674765e-01
Si    9.444800821899999e+00   6.716205276600000e+00   4.047466526300000e+00 -1.94875358e-01   2.60821424e-01   2.19347667e-01
Si    9.431494273000000e+00   9.422334235199999e+00   1.345004526100000e+00  7.27850642e-01   5.90278041e-01   1.34096067e-01
Si   -6.392044165200000e-02   9.366372473700001e-03   5.394515775300000e+00  9.65710759e-01  -2.81042042e-01   2.94204129e-01
Si    1.849242366200000e-02   2.624210060800000e+00   8.146271586199999e+00 -2.17466330e-01   6.37474759e-01  -5.85354405e-01
Si    2.672655650000000e+00   2.791293819000000e-02   8.144789477100000e+00 -2.15235710e-01  -1.22113444e-01  -3.70753689e-01
Si    2.724556528700000e+00   2.726912353300000e+00   5.367045840600000e+00 -6.51989906e-01  -3.14380267e-01   1.76017129e-01
Si    1.342469027100000e+00   1.352108208000000e+00   6.768943447800000e+00  2.23315831e-01  -1.86456778e-01  -9.01309727e-01
Si    1.371856765100000e+00   3.978780490200000e+00   9.407532132500000e+00  2.42857156e-01   9.02827444e-01   4.87964859e-01
Si    4.054568727400000e+00   1.361642406300000e+00   9.391848737900000e+00  7.82905232e-02  -1.19761513e-01   7.39432141e-01
Si    4.071522608900000e+00   4.023677191300000e+00   6.745547265000000e+00 -2.72340954e-01   2.61058322e-01  -1.01215677e-01
Si    5.352811530800000e+00  -4.585051656100000e-03   5.397432245600000e+00  1.83265554e-01   1.55231092e-01   3.35627164e-01
Si    5.386890955500000e+00   2.715353553100000e+00   8.115328669300000e+00  5.24976051e-01  -1.63156345e-01  -4.51672591e-01
Si    8.128085252700000e+00   1.102001212100000e-05   8.162417844300000e+00 -9.28595182e-01  -2.95599650e-01  -2.13235494e-01
Si    8.087820228700000e+00   2.687429314800000e+00   5.461501027600000e+00  6.57872909e-04   4.97584606e-01  -3.26990686e-01
Si    6.739242691000000e+00   1.332028924500000e+00   6.779425552800000e+00 -1.25302233e-01  -2.43006812e-01   1.36347992e-01
Si    6.735298349800000e+00   4.067380401700000e+00   9.438407631200000e+00  5.81700485e-03  -2.80501964e-01   5.28994020e-01
Si    9.480139005800000e+00   1.328964038600000e+00   9.457602361199999e+00 -2.93127070e-01   6.81548834e-02   2.97640030e-01
Si    9.456999216400000e+00   4.007319269600000e+00   6.833403543300000e+00 -8.06074752e-02   4.01533114e-01  -5.32154958e-01
Si   -2.059497715800000e-02   5.380541455800000e+00   5.389312113500000e+00 -4.66493545e-02  -2.59398021e-01   5.47745323e-01
Si    9.481301737699999e-03   8.087739235400001e+00   8.035763746700001e+00 -1.51340829e-01  -3.65210425e-01   5.82761089e-01
Si    2.771914288900000e+00   5.389994401900000e+00   8.099976724799999e+00 -7.09880686e-01   1.22034511e-01   7.95673467e-02
Si    2.721686848700000e+00   8.126119657500000e+00   5.425601496200000e+00 -4.09969210e-01   4.06804401e-01  -3.11892128e-01
Si    1.365286475000000e+00   6.729212520400000e+00   6.709686279800000e+00  2.68835313e-01  -2.29199575e-01   3.17583785e-01
Si    1.377170517000000e+00   9.390748006100001e+00   9.418895997200000e+00 -1.29397161e-01   1.69573730e-01   2.61665487e-01
Si    4.117338675000000e+00   6.752660168300000e+00   9.485913543100001e+00 -6.25967071e-01  -2.93443520e-01  -3.19745464e-01
Si    4.009684094800000e+00   9.503545176299999e+00   6.838524308300000e+00  3.24978312e-01  -4.31349765e-01  -8.16228644e-01
Si    5.321359248700000e+00   5.420546272700000e+00   5.390966322400000e+00  6.77478557e-01   1.14040989e-01  -3.93346653e-01
Si    5.376437294200000e+00   8.111509724499999e+00   8.128208613000000e+00  2.55707300e-01   2.96418876e-01  -4.52993532e-02
Si    8.025798363600000e+00   5.408660096900000e+00   8.085807842299999e+00  5.31894570e-01  -1.07644255e-01  -1.87340450e-01
Si    8.109040819100001e+00   8.108304629499999e+00   5.398382518300000e+00 -6.34279341e-01  -2.66460080e-01   1.16526198e-01
Si    6.670701999700000e+00   6.762253798500000e+00   6.749470567400000e+00  5.35153618e-01   1.78290869e-01  -3.79267600e-01
Si    6.748730488500000e+00   9.404906159199999e+00   9.508263822500000e+00  2.96689442e-01   5.25501126e-01  -2.41283452e-01
Si    9.434915875500000e+00   6.711745649700000e+00   9.408778886000000e+00  6.27240916e-01   6.87673975e-02   3.01671310e-01
Si    9.420566717600000e+00   9.464793728500000e+00   6.785313377200000e+00  1.50909425e-01  -8.95250604e-02  -4.91154204e-01
