64
Lattice="10.8 0 0 0 10.8 0 0 0 10.8 " PBC="1 1 1" Properties=species:S:1:pos:R:3:force:R:3 Energy="0"
Si   -1.155996160000000e-02  -5.707357638800000e-02   3.780931668900000e-02  1.80429150e-01  -1.19410918e-01   1.80067725e-02
Si   -2.714119995600000e-02   2.704328270500000e+00   2.696524648200000e+00  5.00328716e-01   9.16621998e-02  -9.69468140e-02
Si    2.705674735200000e+00   2.483623372700000e-03   2.690940986800000e+00 -2.39935101e-01  -4.36275759e-01   1.49535446e-01
Si    2.726466788400000e+00   2.697219337400000e+00   7.587387668700001e-02 -9.58058624e-02   8.20479615e-02  -3.12217547e-01
Si    1.336545063500000e+00   1.328308299700000e+00   1.396460425600000e+00 -1.16574866e-01   1.88118716e-01  -5.36962169e-01
Si    1.315221805300000e+00   4.078572010100000e+00   4.019008136800000e+00  3.36389027e-01  -2.72743888e-01   3.73503264e-02
Si    4.010841436100000e+00   1.313833583100000e+00   4.066565181400000e+00 -7.02531430e-02   1.98271466e-01   5.87449479e-02
Si    4.115072595000000e+00   4.045217521100000e+00   1.423653395700000e+00 -4.13779429e-01   1.97798610e-01  -4.99498859e-01
Si    5.457577300400000e+00   6.281838517000000e-02   6.995786784700000e-02 -1.82652556e-01  -3.23957428e-01  -3.32897372e-01
Si    5.375803653100000e+00   2.647552237700000e+00   2.801575235000000e+00  1.46692801e-01   7.38342130e-01  -4.83499150e-01
Si    8.150555724300000e+00   5.200710170200000e-02   2.668063996000000e+00 -2.54514503e-01  -2.52555551e-01   7.90387946e-02
Si    8.159295525199999e+00   2.687607386800000e+00  -1.596981766600000e-02 -3.63077167e-01   8.92553944e-02   3.27590994e-02
Si    6.787403291100000e+00   1.448318189000000e+00   1.423332697700000e+00  4.27644975e-02  -5.91299799e-01  -5.89744852e-01
Si    6.696167034600000e+00   4.047115559500000e+00   4.084216748300000e+00  4.98908988e-01   4.85370182e-01  -1.62030652e-03
Si    9.430644793400001e+00   1.383746287100000e+00   4.026587879900000e+00 -5.99237488e-02  -6.99818521e-02   2.26942044e-01
Si    9.534080455900000e+00   4.051961066700000e+00   1.279946398900000e+00 -4.98225592e-01   2.56629701e-01   2.38326625e-01
Si    5.324660079100000e-02   5.413672597300000e+00  -9.409175635200000e-02 -8.76649927e-02  -1.59530427e-01   9.13780451e-02
Si   -2.719852463400000e-02   8.047834010900001e+00   2.765035941500000e+00  1.18032042e-01   3.45378899e-01  -2.87587490e-01
Si    2.662368043600000e+00   5.424210624300000e+00   2.659320941400000e+00  3.36274202e-01   1.19930417e-01   5.77318266e-02
Si    2.666441530200000e+00   8.095259776400001e+00  -5.414360251200000e-02  2.87540671e-01   2.12385966e-01   3.32452984e-01
Si    1.305645316300000e+00   6.786489248300000e+00   1.317842272200000e+00  2.50528765e-01  -3.19983797e-01   9.76373007e-03
Si    1.311322199100000e+00   9.489346513199999e+00   4.042041544400000e+00 -5.97614581e-02  -3.30122916e-01   2.41486346e-01
Si    4.022190647200000e+00   6.837147169700000e+00   3.967914513200000e+00  5.59867406e-02  -2.98711759e-01   4.86677398e-01
Si    4.037236128200000e+00   9.453675763400000e+00   1.326296124300000e+00  2.34172364e-01   1.31574081e-01  -1.35153828e-01
Si    5.442737656300000e+00   5.410147892600000e+00   2.352043470400000e-04 -1.87048596e-01  -2.72210377e-01   3.12043100e-01
Si    5.458248610000000e+00   8.196093924199999e+00   2.705400149500000e+00 -2.90351311e-01  -2.73006301e-01  -1.63544095e-01
Si    8.157253954200000e+00   5.347568626600000e+00   2.716923424400000e+00 -3.81520348e-01  -2.73081052e-02  -1.49407289e-03
Si    8.111925911200000e+00   8.049647543200001e+00   2.292298582200000e-02 -1.91486772e-01   1.17858740e-01  -2.34132169e-01
Si    6.779606537600000e+00   6.746188534700000e+00   1.408636289900000e+00 -1.75669952e-02  -1.80706260e-01  -1.60665726e-01
Si    6.799082971100000e+00   9.573677804200001e+00   4.046225166900000e+00 -1.00711805e-01  -7.23180842e-01   6.34429209e-02
Si    9.447324677199999e+00   6.711899956300000e+00   4.126399858400000e+00 -2.13168790e-01   2.26437354e-02  -3.53181647e-01
Si    9.423906522299999e+00   9.366055039600001e+00   1.393117120400000e+00  4.55820941e-01   5.76806512e-01  -1.64842403e-01
Si   -1.128624134500000e-01  -4.404588039400000e-03   5.388038612000000e+00  1.01520660e+00   2.50015519e-02   1.95760151e-01
Si   -3.783939872400000e-02   2.709559197100000e+00   8.119934372199999e+00  2.41416434e-01  -2.30838509e-01  -1.57172263e-01
Si    2.730272070200000e+00  -6.372831988100000e-03   8.093697192500001e+00 -4.89210101e-01   2.97337700e-01  -1.72374242e-01
Si    2.678157008400000e+00   2.708268551500000e+00   5.354276513500000e+00 -4.30057538e-01  -8.68858429e-02   4.08900422e-01
Si    1.291137143100000e+00   1.347057141200000e+00   6.750056249700000e+00  3.94598452e-01  -7.35516912e-02  -2.26024805e-01
Si    1.438556035900000e+00   4.024266904500000e+00   9.392327796000000e+00 -2.43380899e-01   1.04549974e-01   3.84255634e-01
Si    4.054633887200000e+00   1.354420819200000e+00   9.490436428800001e+00  1.36005464e-02  -1.26435673e-01  -1.52530552e-02
Si    4.077192225800000e+00   4.063980944000000e+00   6.661675636800000e+00 -9.86046083e-02  -2.26382243e-01   1.46455531e-01
Si    5.398780230300000e+00   4.073509701900000e-02   5.385599905500000e+00  6.17694454e-02  -2.68748542e-01   4.56101573e-01
Si    5.349090698700000e+00   2.702731088000000e+00   8.088325907800000e+00  4.37342901e-01  -9.81202265e-02  -7.66237227e-02
Si    8.158735780900001e+00  -6.449897301000000e-02   8.073461632500001e+00 -7.03454751e-01   1.79926448e-01   3.08594969e-01
Si    8.067235394800001e+00   2.675034699100000e+00   5.385189474100000e+00 -4.23015062e-02   3.69448240e-01   2.47897075e-01
Si    6.753589148100000e+00   1.343149192100000e+00   6.775231297200000e+00 -1.46590930e-02  -1.78126358e-01   8.92487278e-02
Si    6.750656922500000e+00   3.999700485200000e+00   9.438499862100000e+00 -6.32781580e-02   2.58961588e-01   2.32128611e-01
Si    9.465479401700000e+00   1.277016678200000e+00   9.459940378100001e+00  8.11084956e-02   3.36289365e-01  -6.38247868e-02
Si    9.412441401700001e+00   4.041441039300000e+00   6.729522978500000e+00  1.15446977e-01  -7.60279134e-02   2.20740021e-01
Si    2.168141578300000e-02   5.381355860400000e+00   5.429232023600000e+00 -3.88616134e-01  -1.33995573e-01   4.71521043e-02
Si    1.981543626600000e-02   8.050423332599999e+00   8.073454178900000e+00 -1.87621508e-01   4.40962840e-02   2.50105271e-01
Si    2.776301648200000e+00   5.385494477100000e+00   8.026614543999999e+00 -3.90302855e-01  -5.82848548e-02   5.03782630e-01
Si    2.642611743000000e+00   8.086898788099999e+00   5.395058249300000e+00  2.77722160e-01   4.79292958e-01  -2.56792193e-01
Si    1.355740722100000e+00   6.711451582300000e+00   6.764679111200000e+00  2.73252412e-01   4.18338439e-02  -2.81650697e-01
Si    1.323502543500000e+00   9.442851327300000e+00   9.395835649100000e+00  2.08040116e-01   1.05022700e-01   3.57720397e-01
Si    4.048345338600000e+00   6.735410382200000e+00   9.438795953800000e+00  1.13913642e-01  -1.45355748e-02   1.67332631e-01
Si    4.052116278500000e+00   9.447240417700000e+00   6.704384659500000e+00 -1.25419265e-01   2.44015655e-02   1.97398731e-01
Si    5.374235404000000e+00   5.514464295200000e+00   5.387555419200000e+00  2.08318265e-01  -2.82952092e-01  -2.92251935e-01
Si    5.363776780400000e+00   8.145427639299999e+00   8.143334894900001e+00  2.62750501e-01   5.79029367e-02  -8.46206073e-02
Si    8.063818315000001e+00   5.378080915500000e+00   8.101650285700000e+00  8.41042401e-02   9.60924621e-02  -2.15764692e-01
Si    8.072669850000000e+00   8.114821359200000e+00   5.397103406400000e+00 -2.14010286e-01  -2.29866177e-01   1.58875235e-02
Si    6.726114658200000e+00   6.806086731900000e+00   6.817452787700000e+00 -2.96419935e-02  -1.63208969e-01  -5.53987246e-01
Si    6.776417485300000e+00   9.449481971799999e+00   9.495165457700001e+00 -8.99510310e-02   2.41694171e-01  -2.57174462e-02
Si    9.428350238800000e+00   6.744817072400000e+00   9.404477176000000e+00  2.49211779e-01  -2.73776940e-01   2.61476289e-01
Si    9.465258784800000e+00   9.350678096599999e+00   6.744368814200000e+00 -1.47139111e-01   6.56796658e-01  -1.50572507e-01
