64
Lattice="10.8 0 0 0 10.8 0 0 0 10.8 " PBC="1 1 1" Properties=species:S:1:pos:R:3:force:R:3 Energy="0"
Si    2.275669736300000e-02  -1.122717847200000e-01   1.068940956800000e-03 -5.70568801e-01   2.14272718e-01   2.01152820e-01
Si   -4.479882064400000e-03   2.754969228400000e+00   2.629655969400000e+00  9.70298892e-01  -1.37881285e+00   1.06612083e+00
Si    2.590933556200000e+00  -1.713433197900000e-02   2.697728045800000e+00  1.42689211e+00   7.45204706e-02   1.64575519e-02
Si    2.708387869200000e+00   2.685816697000000e+00   3.512715648900000e-02  1.17632348e+00   8.75332746e-02   9.47257705e-02
Si    1.362870124000000e+00   1.275634390700000e+00   1.271437653300000e+00 -9.37466327e-01   9.92991611e-01   8.24601968e-01
Si    1.358356381200000e+00   4.075921384800000e+00   4.056732351600000e+00 -4.38808845e-01  -1.98176979e-02  -1.16016529e+00
Si    3.968954506300000e+00   1.331383885700000e+00   4.081077764800000e+00  9.42988857e-01   1.93315265e-01  -4.36650718e-01
Si    4.074044571800000e+00   4.172093033200000e+00   1.402953289300000e+00 -6.89496805e-01  -1.51636314e+00  -1.84131199e-01
Si    5.474118708800000e+00   6.082405987100000e-02   4.170634936300000e-02 -1.09156597e+00  -4.38029694e-01  -5.06501585e-02
Si    5.419368431200000e+00   2.773192897200000e+00   2.729464462900000e+00 -5.66659942e-01  -6.89456146e-01   2.93289611e-01
Si    8.140606276500000e+00   4.250733236700000e-03   2.727994563400000e+00 -4.09669632e-01   8.47268094e-01   9.89393541e-02
Si    8.191110948200000e+00   2.705552482600000e+00  -2.472558043900000e-02 -3.49172049e-01   2.74230833e-01   3.65829310e-01
Si    6.771583673800000e+00   1.423463366900000e+00   1.330017645900000e+00  7.72949712e-01  -1.97256845e-02   1.04859262e+00
Si    6.774879198700000e+00   4.091878766300000e+00   4.103155989100000e+00 -6.31961503e-01  -2.14570089e-01   6.09582242e-02
Si    9.461959302700000e+00   1.424544409700000e+00   4.143446201700000e+00 -1.55445921e-01  -2.42061826e-01  -1.49956952e+00
Si    9.521727138399999e+00   4.098348331200000e+00   1.351883689800000e+00 -1.13428902e+00  -3.89470381e-02  -4.99666581e-01
Si    7.742939412400000e-02   5.307451502500000e+00  -6.850241930500001e-02 -4.95935913e-01   8.63371744e-01  -5.64353005e-01
Si   -1.905752241200000e-02   8.047570056400000e+00   2.738495389500000e+00  1.08556098e-01  -3.98930747e-01  -4.73906191e-01
Si    2.682644865700000e+00   5.482074826300000e+00   2.704735218900000e+00 -1.37380554e-01   7.40102017e-02  -5.44120870e-02
Si    2.718352162700000e+00   8.103533994899999e+00   2.409735069800000e-04  4.81417055e-01   4.71286810e-01  -2.63074585e-01
Si    1.354982079200000e+00   6.753881416700000e+00   1.249381035600000e+00 -4.76968081e-01  -1.24943199e-01   1.09802534e+00
Si    1.276244094000000e+00   9.484901418500000e+00   4.044572137700000e+00 -3.29843041e-01  -6.10279141e-01   1.76144258e-01
Si    4.023983658600000e+00   6.908690541000000e+00   3.966356103300000e+00  2.09700311e-01  -6.95400807e-01   5.73031168e-01
Si    4.071143686000000e+00   9.481822279699999e+00   1.365802235300000e+00 -1.01358632e-01   1.43799818e-01  -1.02701254e-01
Si    5.443668400000000e+00   5.392544819800000e+00   6.299154544100000e-02  4.29241497e-01   1.63749829e-01  -7.26179327e-01
Si    5.488400659100000e+00   8.142541518200000e+00   2.666402777300000e+00 -6.87487465e-01   5.16541881e-01   2.62459167e-01
Si    8.104546711899999e+00   5.366164399800000e+00   2.754088747800000e+00  1.33023304e-01  -5.32865581e-02  -9.93515060e-01
Si    8.156252269700000e+00   8.054052623900001e+00   3.004379495000000e-02 -5.01927284e-01  -2.64568043e-01  -3.70119623e-01
Si    6.784270076200000e+00   6.732053517700000e+00   1.403300589300000e+00  4.70646607e-01  -8.95873721e-02  -4.12285179e-01
Si    6.751577228500000e+00   9.484799535300001e+00   4.091425860800000e+00 -3.44724573e-01   5.22535567e-01  -6.96863365e-01
Si    9.388374214300001e+00   6.682496813500000e+00   4.068478591400000e+00  9.20363094e-01   5.84413183e-01   2.13377580e-01
Si    9.432746895199999e+00   9.382965011900000e+00   1.396491632700000e+00  6.28490516e-01   4.44338098e-01  -4.47539267e-02
Si   -8.878075173199999e-02  -3.961629993100000e-02   5.415794356700000e+00  7.10087689e-01   6.21202128e-01   5.53786608e-02
Si    3.011049333200000e-02   2.627713571700000e+00   8.097005379300001e+00 -9.72241979e-01   4.66717559e-02  -2.68192209e-01
Si    2.633643666000000e+00   7.442057134799999e-02   8.081726149200000e+00  7.40411209e-01  -9.32694895e-01   2.64987560e-01
Si    2.627855189900000e+00   2.729155589500000e+00   5.374007359400000e+00  7.04349175e-01  -3.87806980e-01   2.10903756e-01
Si    1.326902115800000e+00   1.336223384900000e+00   6.701088319700000e+00 -5.11123841e-01   3.22818458e-02  -2.05673962e-01
Si    1.396659490500000e+00   3.903651275800000e+00   9.403436228300000e+00  3.39553946e-01   1.27335731e+00  -7.28863854e-03
Si    4.055908788600000e+00   1.312546390300000e+00   9.457238537300000e+00  1.45870448e-01   7.96136820e-01  -6.97825871e-02
Si    4.076119635300000e+00   4.077716884500000e+00   6.617539812200000e+00 -9.51448303e-02  -3.21472590e-01   1.03346096e+00
Si    5.392619557900000e+00  -1.423543820800000e-02   5.497000812300000e+00 -1.96743808e-01   6.35056433e-01  -1.46615766e+00
Si    5.402071298900000e+00   2.685022465200000e+00   8.051815014000001e+00 -5.09739205e-01  -2.47142699e-02   5.12401650e-02
Si    8.092391279899999e+00  -2.472490242800000e-02   8.163050065000000e+00  4.96689085e-01  -6.77460715e-02  -4.43974129e-01
Si    8.064538160900000e+00   2.712404482700000e+00   5.457329607400000e+00  2.11245559e-01   9.19542348e-02   3.55093578e-02
Si    6.781220105300000e+00   1.305003681700000e+00   6.776806984000000e+00 -2.48847178e-01   3.21818119e-01   3.62673818e-01
Si    6.739013885200000e+00   3.993068496300000e+00   9.443360531200000e+00 -2.62809483e-01   1.36469242e-01   6.11072507e-01
Si    9.490534333699999e+00   1.281055481600000e+00   9.488983668900000e+00  2.19526143e-01   1.17679791e-01  -3.87548841e-01
Si    9.422699955700001e+00   4.044858429300000e+00   6.791431240700000e+00 -4.89281953e-02  -3.39116477e-01   4.54124198e-01
Si   -3.455648500700000e-02   5.315089586000000e+00   5.392301502300000e+00 -7.87948746e-02   8.21038551e-01   2.07511101e-01
Si    4.207988303000000e-02   8.078122231000000e+00   8.026237615399999e+00 -4.16487289e-01  -3.41924672e-01   1.64252253e-01
Si    2.758565569500000e+00   5.362488696300000e+00   8.092462328500000e+00 -1.54703532e-02   9.00971683e-02   6.84070699e-02
Si    2.643504600600000e+00   8.155234830900000e+00   5.372033510700000e+00  3.77909593e-01   6.52150138e-02   1.97687518e-02
Si    1.384950040000000e+00   6.680288469000000e+00   6.673209421700000e+00 -2.23471366e-01   1.56008041e-01   5.55314428e-01
Si    1.366714281800000e+00   9.435483014800001e+00   9.425607791099999e+00  1.03412872e-01  -3.77999859e-01  -3.85097476e-01
Si    4.116938292900000e+00   6.751122155700000e+00   9.513828935899999e+00 -3.74294307e-01  -4.59115643e-02  -8.62622799e-01
Si    4.002830744100000e+00   9.500485847100000e+00   6.743862874300000e+00 -4.50396908e-01  -5.32196737e-01   7.09374715e-01
Si    5.371369674400000e+00   5.515435842200000e+00   5.336074697000000e+00 -8.83795270e-02  -1.43623653e-01  -2.49594843e-01
Si    5.396329113600000e+00   8.172123279899999e+00   8.105306361700000e+00 -7.26956746e-02   3.01455145e-02   7.28627174e-01
Si    7.969853739200000e+00   5.381842113800000e+00   8.101383744000000e+00  1.15812483e+00   3.03564715e-02  -2.77925969e-01
Si    8.057035675100000e+00   8.117394637400000e+00   5.323242203200000e+00  9.22359530e-02  -9.59416047e-01   1.43087478e+00
Si    6.688433242900000e+00   6.771757769500000e+00   6.771159868400000e+00  3.22239061e-01   6.67068234e-01  -6.98240418e-01
Si    6.788314444300000e+00   9.487853331400000e+00   9.553577145100000e+00 -2.14029444e-01  -9.35360609e-01  -6.15268415e-01
Si    9.437014384399999e+00   6.699394842300000e+00   9.373347782200000e+00  5.91836641e-01  -5.25902322e-02   5.14622744e-01
Si    9.394379218799999e+00   9.415607462300001e+00   6.725721445500000e+00 -5.40551249e-02  -1.43381377e-01   5.98555448e-01
