64
Lattice="10.8 0 0 0 10.8 0 0 0 10.8 " PBC="1 1 1" Properties=species:S:1:pos:R:3:force:R:3 Energy="0"
Si    6.897656204300000e-03  -1.054904447200000e-01  -1.085632043500000e-02  4.69931482e-01   4.37246785e-01  -2.14922044e-01
Si    7.964413708300000e-02   2.669350635100000e+00   2.692473579200000e+00 -1.39348544e+00   1.41317391e+00  -7.95612317e-01
Si    2.680083494100000e+00  -8.473963338600000e-03   2.730364439800000e+00 -9.18837532e-01   1.61981973e-02  -2.92763267e-01
Si    2.776288718600000e+00   2.676790354500000e+00   1.629257241100000e-02 -1.36744041e+00  -6.28886253e-02  -2.91927833e-01
Si    1.299712845500000e+00   1.338600651700000e+00   1.332205876300000e+00  1.38480983e+00  -7.66535566e-01  -4.76747621e-01
Si    1.328224907100000e+00   4.093899746500000e+00   3.994666633600000e+00  6.03296541e-01  -2.32241407e-02   9.21634646e-01
Si    4.081643049500000e+00   1.320726877200000e+00   3.993508323400000e+00 -7.56845200e-01   2.55836790e-01   4.71940053e-01
Si    3.975537137200000e+00   4.034424743700000e+00   1.400241663500000e+00  9.99910755e-01   9.25081066e-01   1.69008533e-01
Si    5.395636993100000e+00   7.706804845100000e-02   1.661038428700000e-02  9.01378504e-01  -9.16133511e-02   1.65568701e-01
Si    5.370548786000000e+00   2.701670589100000e+00   2.727730957400000e+00  6.42383733e-01   3.87563711e-01  -3.60828800e-01
Si    8.112114054599999e+00   8.635940952100001e-02   2.758839299400000e+00  3.93115706e-01  -9.40869471e-01  -5.29060017e-01
Si    8.097382224400000e+00   2.737736742800000e+00  -7.608684362500000e-03  1.33600577e-01  -5.71855773e-01  -2.07952940e-01
Si    6.828277371900000e+00   1.422728473200000e+00   1.408280007000000e+00 -1.22064625e+00  -2.66149321e-01  -6.12129635e-01
Si    6.723829407600000e+00   4.042083174500000e+00   4.098057426300000e+00  4.14349023e-01   5.88833278e-02  -3.63404943e-01
Si    9.472152870700000e+00   1.452809240500000e+00   4.015025792600000e+00 -2.17365399e-01  -5.38467193e-01   1.29404848e+00
Si    9.437664417700001e+00   4.055172938700000e+00   1.288919539900000e+00  1.38795355e+00  -4.77560357e-02   5.01681568e-01
Si    4.161627054100000e-02   5.392721877100000e+00  -1.124080116000000e-01 -6.45217619e-03  -4.10791873e-01   8.62517998e-01
Si   -2.765881987700000e-02   7.987756975900000e+00   2.643227190600000e+00 -2.29584164e-01   7.40416293e-01   7.58631958e-01
Si    2.667068225700000e+00   5.519047752400000e+00   2.707939132100000e+00  4.21288153e-01  -7.67767222e-01  -1.13513576e-02
Si    2.785251859700000e+00   8.136940775399999e+00   4.338140822300000e-03 -6.06723576e-01  -6.54482527e-01   1.06223408e-01
Si    1.356545649800000e+00   6.751294309600000e+00   1.286727086400000e+00  1.34178001e-01   1.90658170e-01  -5.59457905e-01
Si    1.236192767800000e+00   9.411050520100000e+00   4.036808258400000e+00  7.40028672e-01   1.72027902e-01  -2.11726359e-02
Si    4.057945298600000e+00   6.875714101400000e+00   4.033529810100000e+00 -4.21644785e-01   1.30831923e-01  -3.47411249e-01
Si    4.046160949900000e+00   9.533098898700000e+00   1.360551418500000e+00  3.24730907e-01  -2.49748930e-01  -1.92762259e-01
Si    5.428912481500000e+00   5.358861387900000e+00   3.666754994400000e-02 -9.01543746e-01   1.22821456e-01   3.82426249e-01
Si    5.449469379800000e+00   8.162888347499999e+00   2.625715711700000e+00 -1.76643807e-01  -4.78962698e-01   6.37023084e-02
Si    8.098271551000000e+00   5.361400879900000e+00   2.667039614300000e+00  1.88628896e-01   7.62823557e-02   9.88675335e-01
Si    8.157370864300001e+00   8.028848882300000e+00  -1.713679086700000e-02  5.47597101e-01   4.82347455e-01   6.44961733e-02
Si    6.815420450800000e+00   6.726087325600000e+00   1.309819742100000e+00 -6.66830274e-01   1.37617430e-01   4.98653215e-01
Si    6.729886005900000e+00   9.480305060399999e+00   4.025662661100000e+00  6.52319167e-01  -1.97079545e-01   4.91470224e-01
Si    9.465320917100000e+00   6.691076855200000e+00   4.117580989800000e+00 -6.32044361e-01   4.47914877e-02  -6.26182483e-01
Si    9.456945643599999e+00   9.453153763200000e+00   1.376131891000000e+00 -6.91123033e-01  -4.37979198e-01   1.59689677e-01
Si   -5.879371107200000e-02   1.392814629600000e-02   5.393025308500000e+00 -4.19289075e-01  -2.28196201e-01  -2.06596849e-01
Si   -1.469010191600000e-02   2.657037312500000e+00   8.122187872900000e+00  9.15020549e-01   1.67701531e-01   1.68085284e-01
Si    2.658885417800000e+00   1.176328784700000e-02   8.148042759699999e+00 -3.89016874e-01   7.67030687e-01  -4.04916403e-01
Si    2.755162967800000e+00   2.710954705900000e+00   5.321124805900000e+00 -7.21864965e-01   1.00331391e-01   9.94098161e-02
Si    1.334835652100000e+00   1.363025345200000e+00   6.661390252200000e+00  3.98088913e-01  -3.36255057e-02   8.55967821e-01
Si    1.441996997500000e+00   4.043237357900000e+00   9.410994184600000e+00 -4.87229855e-01  -8.59602081e-01   2.78496355e-01
Si    4.081022940300000e+00   1.396718188800000e+00   9.402126666399999e+00 -3.23296685e-01  -6.75567583e-01   4.29631101e-01
Si    4.064886630600000e+00   4.043066831900000e+00   6.731263722100000e+00  2.76921374e-02   3.28521465e-01  -7.01761477e-01
Si    5.338758388700000e+00  -1.130212562100000e-02   5.354956392500000e+00  4.63527364e-01  -2.98170190e-01   1.18139668e+00
Si    5.386164969200000e+00   2.692001418400000e+00   8.040300201299999e+00  4.62657204e-01   8.40610884e-02   3.82916500e-01
Si    8.116003661800001e+00  -3.640826956300000e-02   8.186136008400000e+00 -4.28369366e-01   1.46126985e-01  -1.03969914e-01
Si    8.121479532200000e+00   2.718837342900000e+00   5.500563980100000e+00 -4.51465808e-01  -2.62601200e-01  -5.17125785e-01
Si    6.736148462100000e+00   1.274176006400000e+00   6.791391427500000e+00  2.53323125e-01   1.99325881e-01  -5.52296192e-01
Si    6.680615591000000e+00   4.014829232800000e+00   9.479417314399999e+00  5.89171895e-01   1.98686632e-01  -9.30511738e-01
Si    9.473906474900000e+00   1.326766525700000e+00   9.508614519800000e+00 -2.20214778e-01  -8.64621531e-02  -1.03608158e-01
Si    9.429947052899999e+00   4.050350432700000e+00   6.889802667000000e+00 -2.00393038e-02   3.42595567e-02  -9.25408812e-01
Si   -1.374335286700000e-02   5.354787061200000e+00   5.481713851700000e+00  1.15352857e-01  -4.31498492e-01  -4.13404554e-01
Si    2.368761470500000e-02   8.037898732200000e+00   7.995371965000000e+00 -5.96522529e-02   1.70788191e-01   5.58098738e-01
Si    2.777493918300000e+00   5.379297261300000e+00   8.111745053100000e+00 -4.93066116e-02   2.07183831e-01  -1.97422524e-01
Si    2.677675935700000e+00   8.176011833200000e+00   5.449416986700000e+00 -2.35280489e-01  -6.09857205e-01  -3.30616387e-01
Si    1.400210882300000e+00   6.663486128500000e+00   6.750690509100000e+00  2.45429048e-01   6.45382178e-01  -2.81977520e-01
Si    1.379616331400000e+00   9.327555857100000e+00   9.399996913500001e+00 -4.88087172e-01   8.03953503e-01   3.77393229e-01
Si    4.088467183700000e+00   6.728374699000000e+00   9.485705464500001e+00  2.31391652e-01   1.01548890e-01   6.95223322e-02
Si    3.988020645200000e+00   9.498397884099999e+00   6.851423613200000e+00  7.50045494e-01  -3.83242738e-02  -9.32738722e-01
Si    5.334968713100000e+00   5.453595893700000e+00   5.318100740700000e+00  2.93617605e-01  -1.90631263e-01   8.42724731e-01
Si    5.378398621900000e+00   8.169307919500000e+00   8.182619971799999e+00  4.69646629e-02  -6.49435548e-01  -7.45013554e-01
Si    7.996459301400000e+00   5.418777299900000e+00   8.073980763000000e+00 -1.61618249e-01   2.49544796e-01   4.74761545e-01
Si    8.066586408899999e+00   8.073267123799999e+00   5.434553894000000e+00  3.06349291e-01   8.83622887e-01  -1.18439599e+00
Si    6.659108816100000e+00   6.836256473800000e+00   6.680447525500000e+00 -3.63876816e-01  -9.54391010e-01   1.28444032e+00
Si    6.774313837600000e+00   9.404951358300000e+00   9.535137191800001e+00 -2.24295657e-01   8.49739234e-01   8.67577816e-02
Si    9.502846490700000e+00   6.709834238000000e+00   9.365173949700001e+00 -8.28350717e-01   1.87557006e-01  -7.53233535e-02
Si    9.389200158600000e+00   9.433513566200000e+00   6.785637639100000e+00  6.40332434e-01   1.07390184e-01  -4.79195517e-01
