64
Lattice="10.8 0 0 0 10.8 0 0 0 10.8 " PBC="1 1 1" Properties=species:S:1:pos:R:3:force:R:3 Energy="0"
Si   -3.276463440200000e-02   1.239404760900000e-01  -3.158819943700000e-02 -3.61818408e-01  -7.81086042e-01   9.68767439e-01
Si   -1.046555789200000e-01   2.715363533000000e+00   2.734074310500000e+00  2.27122564e+00  -1.19700083e+00   7.33429099e-01
Si    2.770413313000000e+00   3.877356998900000e-02   2.656129559300000e+00 -2.08725957e-01  -5.91169012e-01   4.27386371e-01
Si    2.644093913500000e+00   2.695261514200000e+00  -1.707538889600000e-02  9.38194584e-01   6.61742605e-01   2.68571871e-01
Si    1.373128063200000e+00   1.386804946900000e+00   1.371456381400000e+00 -1.03047196e+00   1.52292995e-01   2.45035659e-01
Si    1.352645022300000e+00   4.013603542000000e+00   4.097098092200000e+00 -3.06538595e-01  -3.29913618e-01  -3.78708279e-01
Si    4.060228340100000e+00   1.351594937600000e+00   4.080478727100000e+00  8.50597225e-02  -2.65725928e-01  -1.43400553e-01
Si    4.114306541900000e+00   4.071542056900000e+00   1.335358323400000e+00 -8.36873394e-01  -8.51193885e-01  -3.93565490e-01
Si    5.350422264700000e+00  -9.226506991400001e-02  -2.177527549300000e-02 -2.48125626e-02   3.23225234e-01  -2.57162838e-01
Si    5.392249825900000e+00   2.628447928200000e+00   2.686616938400000e+00  1.14270199e-02   6.61576343e-01  -2.31146795e-01
Si    8.103454129599999e+00  -5.772034909300000e-02   2.674354300700000e+00 -7.28208905e-01   6.04999829e-01   1.87811454e-01
Si    8.121341920500001e+00   2.683694859700000e+00  -1.721379499900000e-02 -5.44639986e-01   3.86184878e-01   7.67836662e-01
Si    6.697982083700000e+00   1.301813169600000e+00   1.308859389700000e+00  7.62693453e-01  -3.07413963e-01  -9.53173250e-02
Si    6.748843988800000e+00   4.007708234300000e+00   3.984005935100000e+00  2.04545410e-01   3.11576672e-01   7.52170826e-01
Si    9.461069850900000e+00   1.252405603100000e+00   4.050560595300000e+00 -2.66374077e-01   3.93631581e-01  -5.28560292e-01
Si    9.473341803300000e+00   4.021756579000000e+00   1.443705219100000e+00 -2.03803550e+00   1.00541524e+00  -9.96688082e-01
Si   -7.630641561300000e-02   5.445580088400000e+00   1.355231357600000e-01  4.25924405e-01  -1.74892593e-01  -1.24783867e+00
Si    4.396204025400000e-02   8.178359292200000e+00   2.756824809700000e+00 -9.10191457e-02   7.52491933e-02  -7.41246407e-01
Si    2.706492748900000e+00   5.302567169200000e+00   2.724302645000000e+00 -2.19132885e-01   5.87230052e-01  -3.02945682e-01
Si    2.611919304700000e+00   8.067250536000000e+00   3.379420505800000e-02  3.27384601e-01   5.02966075e-01  -5.63971179e-01
Si    1.315019925300000e+00   6.754202645400000e+00   1.445999574600000e+00  4.25747585e-01  -3.86773104e-01   5.83453905e-02
Si    1.453543294700000e+00   9.477089904100000e+00   4.057243164200000e+00 -3.03256976e-01   2.64750587e-01   2.26487283e-01
Si    4.050420368800000e+00   6.630688142500000e+00   4.066917624800000e+00  4.26137763e-01  -4.10959299e-01   4.22077527e-01
Si    4.049402719000000e+00   9.328486161800001e+00   1.383958922200000e+00 -3.41366017e-01   7.64790228e-01  -4.64376223e-01
Si    5.392710024900000e+00   5.459026906500000e+00  -3.991118859000000e-02  2.92098200e-01  -5.76396222e-01  -3.94839222e-01
Si    5.347745589500000e+00   8.008088242800000e+00   2.747965705600000e+00  4.93875172e-01   6.85433169e-01   4.63924040e-01
Si    8.090646861200000e+00   5.479996931400000e+00   2.739622073800000e+00 -2.54138206e-01  -9.47754021e-01  -9.88029673e-01
Si    8.036123596900000e+00   8.147182972900000e+00   1.069859807200000e-02 -5.45582496e-01   2.15363344e-01   2.72938791e-02
Si    6.687371021000000e+00   6.783009826600000e+00   1.371920160900000e+00  7.14818091e-01  -3.57479238e-01  -4.22245976e-01
Si    6.775440577300000e+00   9.409003685300000e+00   4.052392860700000e+00 -7.16889910e-01   1.65350106e-01  -3.26996941e-01
Si    9.465587265200000e+00   6.827346562400000e+00   3.968080711500000e+00  3.80134671e-01  -4.63580406e-01   1.02995645e+00
Si    9.419664376000000e+00   9.427666079200000e+00   1.367588956100000e+00  1.11829556e+00   6.69562163e-01  -8.75159243e-01
Si    9.398540372800000e-03  -5.369061941600000e-03   5.411680098000000e+00  1.33214905e+00   3.31904836e-02   1.81432843e-01
Si   -3.488118625600000e-02   2.742168087500000e+00   8.054838055699999e+00 -1.71096893e-02  -8.11959071e-02   2.72918095e-01
Si    2.752356936800000e+00   6.794924897200000e-03   8.067465562500001e+00  9.44223831e-02  -1.00844802e+00   1.64478406e-01
Si    2.718529776000000e+00   2.667755147800000e+00   5.442295976500000e+00 -1.86424669e-01   3.20169113e-01   6.59450565e-01
Si    1.351291949600000e+00   1.335132843800000e+00   6.870687384700000e+00 -1.59135080e-01   2.80814707e-01  -1.82385864e+00
Si    1.249461832400000e+00   4.029464225300000e+00   9.481264007500000e+00  2.47474183e-01   1.26758965e+00   1.10272030e-01
Si    4.003732930100000e+00   1.341122817900000e+00   9.440940964699999e+00  5.09270563e-01  -9.62412284e-02   6.22905944e-01
Si    4.069731783000000e+00   4.089723601200000e+00   6.804938311500000e+00 -6.39315127e-01  -8.66610295e-01   9.05082291e-03
Si    5.430754402600000e+00   6.013707712500000e-03   5.400904651100000e+00  3.28252646e-01  -1.18409917e-01  -3.31429929e-01
Si    5.381978633800000e+00   2.699218649400000e+00   8.155838635200000e+00  1.11038126e-01  -1.93084296e-01  -9.22771450e-01
Si    8.149256079000001e+00   5.667659762200000e-02   8.026827121000000e+00 -7.69302499e-01  -4.28640476e-01  -8.90882590e-02
Si    8.167080560900001e+00   2.679058308100000e+00   5.307085849200000e+00 -6.97333553e-01   2.70347314e-01   3.76758633e-01
Si    6.763865519100000e+00   1.418248793600000e+00   6.707765835800000e+00  5.47322703e-03  -1.78710237e-01   2.63703592e-01
Si    6.775950780400000e+00   4.018966057300000e+00   9.403419354900000e+00 -3.93401520e-02   7.91530138e-01   1.14565633e+00
Si    9.413461941500000e+00   1.411223826800000e+00   9.384384653300000e+00  4.70008559e-01  -1.04619476e-01   1.44406249e-01
Si    9.498920753400000e+00   4.067983543500000e+00   6.630172837500000e+00 -5.65968255e-01   1.65160388e-01   7.88495753e-01
Si    2.907961745700000e-03   5.446326460700000e+00   5.332325971300000e+00  2.68509617e-01   6.00305639e-01   2.33611140e-01
Si   -2.838813432100000e-02   8.197661620100000e+00   8.170715978400001e+00  3.11718394e-01  -3.99151280e-01  -1.57387524e-01
Si    2.638255802100000e+00   5.422803497700000e+00   8.090829798600000e+00 -3.40975952e-01  -2.65077037e-01   3.90903479e-01
Si    2.724234359000000e+00   7.991523840500000e+00   5.358013992400000e+00  1.19069495e-01   1.18826132e+00   3.94151078e-01
Si    1.304183380600000e+00   6.832098139000000e+00   6.766433260000000e+00 -2.77476468e-01  -6.93906722e-01   3.25097721e-02
Si    1.334147558900000e+00   9.580719203099999e+00   9.479381084800000e+00  4.34128334e-01  -8.86677751e-01   4.63246741e-03
Si    4.004620620300000e+00   6.786267718400000e+00   9.396813855800000e+00 -1.10099964e-01  -1.88807256e-01   5.35854781e-01
Si    4.115209948900000e+00   9.395059490100000e+00   6.679088119500000e+00 -8.18224766e-01   2.93471555e-02   3.08748075e-01
Si    5.463113345600000e+00   5.336376329100000e+00   5.487865630900000e+00 -2.96367058e-02   1.74024104e-01  -1.22262604e+00
Si    5.427055630000000e+00   8.017059214100000e+00   8.016416955100000e+00 -2.32549767e-01   8.26232191e-01   6.32915418e-01
Si    8.200620873900000e+00   5.378798893800000e+00   8.156401436800000e+00 -2.24853176e-01  -1.32868526e-01  -7.97172914e-01
Si    8.174235123900001e+00   8.126064868500000e+00   5.350324790500000e+00 -7.70348835e-01  -7.68889924e-01   1.13947865e+00
Si    6.816534933200000e+00   6.686059867100000e+00   6.798843060600000e+00  9.95994582e-01   3.95321811e-01  -1.03387997e+00
Si    6.734941234400000e+00   9.466002821800000e+00   9.328454587100000e+00  1.84865649e-01  -1.12398557e-01   4.84200646e-01
Si    9.396245301900001e+00   6.843744213200000e+00   9.518217482200001e+00  8.85478859e-01  -7.33838304e-01   3.53804446e-02
Si    9.495346681099999e+00   9.460981073999999e+00   6.721397624100000e+00 -4.79435906e-01   1.25279070e-01   2.19404438e-01
