64
Lattice="10.8 0 0 0 10.8 0 0 0 10.8 " PBC="1 1 1" Properties=species:S:1:pos:R:3:force:R:3 Energy="0"
Si   -9.808856830000000e-03  -6.647992157400000e-02   2.180896973500000e-02  1.04429990e+00   3.18778714e-01  -8.78717678e-01
Si    6.536206716699999e-02   2.683941330500000e+00   2.681984813700000e+00 -1.59487482e+00   9.62463658e-01  -4.10296605e-01
Si    2.660153480000000e+00  -5.367945885900000e-02   2.716224668900000e+00 -4.64824135e-02   6.57422520e-01  -3.63765001e-01
Si    2.764990375000000e+00   2.697551109800000e+00   1.361087618200000e-02 -1.13682518e+00  -4.36543367e-01  -2.06744657e-01
Si    1.331225654000000e+00   1.339760692900000e+00   1.338815040700000e+00  8.28957675e-01  -4.93167238e-01  -2.68913860e-01
Si    1.340948608300000e+00   4.083551929600000e+00   3.991106765600000e+00  4.81190241e-01   2.80033404e-01   6.41466862e-01
Si    4.017934116900000e+00   1.337141107000000e+00   4.031117686700000e+00 -1.63021750e-02   3.44475519e-01   5.59560370e-01
Si    4.014879628600000e+00   4.040103178600000e+00   1.368565558100000e+00  6.47121662e-01   1.01215420e+00   1.71248115e-01
Si    5.404100570200000e+00   6.779762324200000e-02  -1.573638810500000e-03  7.01741785e-01  -5.71770431e-01   5.27478199e-01
Si    5.391466035900000e+00   2.769556860500000e+00   2.741804829000000e+00  2.88594963e-01  -6.48380749e-01  -3.65812185e-02
Si    8.111754003400000e+00   4.120458284100000e-02   2.727515127900000e+00  5.15733366e-01  -5.92718280e-01  -4.62220481e-01
Si    8.150375375699999e+00   2.712094517000000e+00  -7.905535700500000e-03 -4.01140749e-01  -3.25754472e-01  -6.45435930e-01
Si    6.784750711600000e+00   1.395008841300000e+00   1.370899648400000e+00 -4.27974766e-01   2.94738478e-01   4.41980900e-02
Si    6.760694581300000e+00   4.112755829100000e+00   4.113008396400000e+00 -2.42493403e-01  -1.46842247e-01  -7.71483438e-01
Si    9.440710304300000e+00   1.433684765100000e+00   4.073815524200000e+00  3.14873043e-01  -7.07643627e-01   8.29678750e-02
Si    9.422490391900000e+00   4.105714275600000e+00   1.286740657300000e+00  1.88759024e+00  -1.27127209e+00   3.38843126e-01
Si    6.543054634300000e-02   5.349119175900000e+00  -8.523139455900000e-02 -3.20742083e-01   5.91884706e-01   7.52294856e-01
Si   -5.022667452100000e-02   8.011441718900000e+00   2.698882399400000e+00  6.37167678e-01   4.85734854e-01   2.25766965e-01
Si    2.701426660100000e+00   5.506329306100000e+00   2.676212917000000e+00  1.75555211e-01  -1.16334182e+00   2.15707246e-01
Si    2.749403423600000e+00   8.123177952300001e+00  -3.210156961500000e-02 -2.19031611e-01  -2.63437976e-01   6.08433980e-01
Si    1.365009900600000e+00   6.758267061500000e+00   1.331601011400000e+00 -3.45620545e-01   2.32026183e-01  -9.32911769e-01
Si    1.275223959000000e+00   9.435180218599999e+00   4.045164315500000e+00  1.15289601e-01  -2.40563474e-01  -7.14892134e-03
Si    4.054793708800000e+00   6.844668143500000e+00   3.994874504400000e+00 -4.69835997e-01   3.92022471e-01   8.47188138e-02
Si    4.064428988900000e+00   9.504149822500001e+00   1.333018471600000e+00  4.50970208e-02  -3.63122443e-01   9.70821431e-02
Si    5.433395534500000e+00   5.379047451100000e+00   2.115013282400000e-02 -3.33707206e-01   2.92725533e-01   7.99680876e-01
Si    5.438564478900000e+00   8.159221767700000e+00   2.693589678500000e+00 -4.51596912e-01  -4.34540306e-01  -9.23051187e-01
Si    8.142389456400000e+00   5.351732332100000e+00   2.657432074300000e+00 -6.31033454e-01   7.89139732e-01   1.18637697e+00
Si    8.093860968900000e+00   8.050160517300000e+00   2.754489027700000e-02  9.93218183e-01   1.01871150e-03  -3.76824025e-01
Si    6.792801912900000e+00   6.742450349700000e+00   1.377736767000000e+00 -6.48025895e-01  -2.02869004e-01   1.50051067e-01
Si    6.709126797700000e+00   9.472798164700000e+00   4.019672117800000e+00  1.04749195e+00   1.58855789e-01   1.01775691e+00
Si    9.447159400900000e+00   6.691961512900000e+00   4.089636213400000e+00 -8.86787555e-01   4.41048165e-01  -4.95959460e-01
Si    9.504615880999999e+00   9.401936703000001e+00   1.336690975500000e+00 -1.50497693e+00   1.57553394e-01   8.12553067e-01
Si   -4.963826557000000e-03   1.122054431200000e-02   5.425418090600000e+00 -9.07010473e-01  -6.87218829e-02  -6.74380603e-01
Si    9.899596530600000e-03   2.611564394500000e+00   8.145419356800000e+00  2.62234592e-01   1.14072979e+00  -8.04355079e-01
Si    2.676664517600000e+00   2.068146405600000e-02   8.111145592600000e+00 -2.42390273e-01   5.48191888e-01  -1.77190158e-01
Si    2.648192279900000e+00   2.718751565000000e+00   5.427132063500000e+00  1.09325663e-01  -3.30302198e-01  -1.36493244e+00
Si    1.304178997000000e+00   1.358536525900000e+00   6.713012179000000e+00  6.90115035e-01  -3.15718286e-01   8.69604043e-01
Si    1.391654877100000e+00   4.000641371000000e+00   9.408110593300000e+00  5.14194703e-01  -2.61828941e-01   9.95966093e-02
Si    4.061795576000000e+00   1.335307190800000e+00   9.465203452400001e+00 -1.92404892e-01   4.55684520e-01  -6.53279360e-01
Si    4.071158038400000e+00   3.993075736000000e+00   6.676473019400000e+00  1.00582327e-01   1.15367727e+00   2.65142194e-01
Si    5.393817451500000e+00   1.483485120000000e-03   5.420491925900000e+00 -4.24851307e-01   8.24219101e-02   1.88341941e-01
Si    5.377327072300000e+00   2.686459873400000e+00   8.066280932500000e+00  4.31246971e-01   2.53151567e-01   9.37899860e-01
Si    8.099397420600001e+00  -3.995646615300000e-02   8.135889150600001e+00  1.17728103e-01   2.23544969e-01   2.42119528e-01
Si    8.036603614600001e+00   2.696534413800000e+00   5.444898841500000e+00  5.86993228e-01   3.05463780e-01   1.85832955e-01
Si    6.759851611800000e+00   1.332763371000000e+00   6.811810432500000e+00 -3.09721931e-01  -3.86953000e-01  -4.79247350e-01
Si    6.739262972300000e+00   4.084246573900000e+00   9.472479053400001e+00 -2.38182770e-02  -1.18972258e+00  -6.10657130e-01
Si    9.519429338100000e+00   1.309940769700000e+00   9.430180846700001e+00 -1.23361853e+00  -4.83609812e-01   1.05942073e+00
Si    9.411686169499999e+00   3.995267405600000e+00   6.844804131400000e+00  5.57586629e-01   2.58019053e-01  -1.07701664e+00
Si   -2.232310129400000e-02   5.398436188300000e+00   5.392078104700000e+00 -8.52250000e-04  -1.30607686e+00   6.90837170e-01
Si    6.391892479200000e-03   8.062114736700000e+00   8.056152493900001e+00  2.02101824e-02  -1.30715616e-01   1.86366549e-01
Si    2.782873817900000e+00   5.357598456300000e+00   8.094394020299999e+00 -2.75512403e-01   4.24623255e-01  -2.46433636e-01
Si    2.711522697700000e+00   8.173713684599999e+00   5.390212888400000e+00 -6.00587131e-01  -8.36555767e-01  -1.20335746e-01
Si    1.372666508700000e+00   6.704182437200000e+00   6.697490792700000e+00  5.34673868e-01   4.03092094e-01   4.69983124e-01
Si    1.394301780800000e+00   9.412148897600000e+00   9.401795971600000e+00 -9.02012050e-01   1.66646748e-01   4.77237142e-01
Si    4.120833055500000e+00   6.750501101500000e+00   9.500532299200000e+00 -5.98582175e-01  -3.41715992e-01  -5.83071576e-01
Si    3.978779043500000e+00   9.473279057899999e+00   6.802739625700000e+00  1.02014285e+00   2.91504621e-01  -4.61908523e-01
Si    5.328527686400000e+00   5.499920103800000e+00   5.317879531700000e+00  6.93044623e-01  -6.86467561e-01   1.20633867e+00
Si    5.361881849200000e+00   8.166648208700000e+00   8.159274272799999e+00  6.16807284e-01  -4.68195724e-01  -4.59742969e-01
Si    8.013038786799999e+00   5.387956743700000e+00   8.051004474300001e+00  6.36370312e-01   2.46057191e-01   6.97651090e-01
Si    8.050545143700001e+00   8.065391474300000e+00   5.426387203200000e+00  5.81704122e-01   8.99346122e-01  -8.79926857e-01
Si    6.717634360900000e+00   6.794183315400000e+00   6.748795358500000e+00 -1.22059753e+00  -2.25529198e-01   2.55013304e-01
Si    6.771546852300000e+00   9.427549200300000e+00   9.530090408500000e+00 -4.04220020e-01   5.22801585e-01  -3.65533280e-01
Si    9.450619236700000e+00   6.677039655200000e+00   9.418415471699999e+00 -2.79554940e-01   5.21688935e-01  -1.64162316e-01
Si    9.425772690500001e+00   9.451469060100001e+00   6.760594528100000e+00  9.63028778e-02  -4.14640374e-01  -2.45342546e-01
