64
Lattice="10.8 0 0 0 10.8 0 0 0 10.8 " PBC="1 1 1" Properties=species:S:1:pos:R:3:force:R:3 Energy="0"
Si    1.918143271800000e-02  -7.072194471400001e-02   7.974809475300000e-03  1.34773851e-01   5.08049787e-01  -7.21105801e-01
Si    6.984798403100000e-02   2.712929098500000e+00   2.694174021700000e+00 -1.49815972e+00   1.24921232e-01  -7.73112860e-01
Si    2.725209434500000e+00  -2.057540655100000e-02   2.744147978000000e+00 -1.57281022e+00   8.01521449e-02  -7.13053400e-01
Si    2.738660481200000e+00   2.652448936600000e+00  -9.161248096800001e-03 -8.29777073e-01   9.27591182e-01   2.11532340e-01
Si    1.326592239000000e+00   1.366656681000000e+00   1.309514751800000e+00  9.23082131e-01  -1.07833495e+00   6.04110934e-01
Si    1.334649942300000e+00   4.068398073100000e+00   3.996120196000000e+00  8.44034175e-01   6.59235503e-01   1.14095039e+00
Si    4.088048936700000e+00   1.340137124800000e+00   3.967178292600000e+00 -4.96317217e-01  -8.83091105e-02   1.09373677e+00
Si    4.004137898900000e+00   3.980316642600000e+00   1.415576709200000e+00 -3.44639270e-03   1.34061726e+00  -6.28858039e-01
Si    5.391531229000000e+00   7.880181694200000e-02   4.024072434000000e-02  8.35405426e-01  -3.97845028e-01  -6.89067733e-01
Si    5.368448017200000e+00   2.698044701600000e+00   2.704213184600000e+00  9.97755656e-01   1.70251262e-02   1.54054368e-02
Si    8.100458052700001e+00   9.006067671699999e-02   2.756772021400000e+00  4.67269860e-01  -1.29794907e+00  -1.19243853e+00
Si    8.061981319399999e+00   2.700446996200000e+00  -1.073672839800000e-02  2.75551830e-01   3.00048055e-01   1.25162818e-01
Si    6.774661922100000e+00   1.374158737000000e+00   1.415482586400000e+00 -5.24964845e-01   3.28229375e-01  -7.05054956e-01
Si    6.731083640700000e+00   4.002393766100000e+00   4.075278651300000e+00  1.21481588e-01   7.74070447e-01  -1.72397758e-01
Si    9.393697352600000e+00   1.434520370200000e+00   4.008290104200000e+00  1.70455710e+00  -3.61248130e-01   1.08636030e+00
Si    9.467577655199999e+00   4.064371687000000e+00   1.293811234700000e+00  4.70523327e-01  -5.94021186e-01   9.04470464e-02
Si    4.057973954600000e-03   5.410793740900000e+00  -8.972380386500001e-02  3.84139891e-01  -1.92697395e-01   7.98272890e-01
Si   -6.824273065300000e-02   8.024050398900000e+00   2.650631507500000e+00  8.93989505e-01   2.45892233e-01   5.62779952e-01
Si    2.701753811000000e+00   5.511669606600000e+00   2.700720266400000e+00 -1.35846282e-01  -1.45521266e+00   4.66219603e-02
Si    2.788785113000000e+00   8.118489232800000e+00  -7.810724076100000e-03 -8.01877969e-01  -3.19676454e-01   1.57584486e-01
Si    1.350347041500000e+00   6.741384036300000e+00   1.320144600200000e+00 -1.06805429e-02   5.55142121e-01  -7.44684982e-01
Si    1.268611090100000e+00   9.366458548000001e+00   4.049145972700000e+00  4.60514031e-01   8.45415012e-01  -1.86392021e-01
Si    4.021128532200000e+00   6.820934279800000e+00   4.063031630800000e+00  5.08378712e-01   5.40265899e-01  -5.04314501e-01
Si    4.071040823000000e+00   9.541975128700001e+00   1.343440527700000e+00 -4.17806844e-01  -5.10890894e-01  -2.33163272e-01
Si    5.365103168700000e+00   5.357708960700000e+00   2.130952687600000e-02 -5.75347630e-02   3.66629766e-02   4.07628938e-01
Si    5.395022756700000e+00   8.165285448400001e+00   2.607096057000000e+00  5.10965850e-01  -7.66643791e-01   8.85166246e-01
Si    8.142379899200000e+00   5.344115858800000e+00   2.681852478600000e+00 -7.21161961e-01   5.86337268e-01   4.84790779e-01
Si    8.156632974000001e+00   8.039551313600001e+00  -6.994994857000000e-02  3.71201491e-01   6.68851281e-01   1.16035111e+00
Si    6.785032048300000e+00   6.743027739300000e+00   1.295801762500000e+00 -2.17466535e-01  -3.32330356e-01   5.05082002e-01
Si    6.782257875500000e+00   9.479214572800000e+00   3.996583922100000e+00 -5.25017338e-01  -4.27232237e-01   8.34205191e-01
Si    9.470434031100000e+00   6.727943607400000e+00   4.082377733900000e+00 -4.83749468e-01  -6.26123392e-01   1.46680670e-01
Si    9.487534022700000e+00   9.456965686900000e+00   1.378271016800000e+00 -1.53345219e+00  -5.72095871e-02  -2.84145616e-01
Si   -2.776860072800000e-02   1.862042265000000e-03   5.409333541100000e+00 -2.98741986e-01   3.86966937e-01  -8.55553593e-01
Si    5.708210889600000e-03   2.677814611700000e+00   8.148998824300000e+00  6.91573234e-01   3.42556468e-01  -3.04370393e-01
Si    2.651379764900000e+00   3.379642666700000e-02   8.160861758399999e+00  1.90058089e-01  -2.55351014e-01  -8.27849639e-01
Si    2.762961395300000e+00   2.691679390800000e+00   5.323445564900000e+00 -6.23870382e-01   3.65319230e-01   3.10570230e-01
Si    1.352864181600000e+00   1.370191284500000e+00   6.699435161100000e+00  1.42425310e-01   3.00712371e-02   4.39432247e-01
Si    1.409290185500000e+00   4.072596514200000e+00   9.445760347600000e+00  1.00974794e-01  -4.90762208e-01  -2.09939649e-01
Si    4.043611982300000e+00   1.390502072300000e+00   9.437026483500000e+00  6.76141518e-01  -4.25664420e-01  -2.78018656e-01
Si    4.074203071000000e+00   4.045700796800000e+00   6.756916412700000e+00 -4.95903994e-01  -5.70989270e-02  -7.59920863e-01
Si    5.348801262100000e+00  -4.258108347700000e-03   5.363257929100000e+00  6.24935303e-01  -4.99270502e-01   4.03537512e-01
Si    5.412483358600000e+00   2.700364896500000e+00   8.030976998900000e+00 -1.37459897e-01  -1.02512453e-01   1.07571777e+00
Si    8.084525556199999e+00  -2.927012935000000e-02   8.173881588100000e+00  3.06510535e-01   1.19598195e-01  -4.26932090e-01
Si    8.120202315100000e+00   2.702276098900000e+00   5.438052964700000e+00 -6.86825364e-01  -2.00012580e-02   7.00572353e-01
Si    6.719540931600000e+00   1.282313906200000e+00   6.779909029100000e+00  6.46545977e-01   2.63678417e-01  -7.45543954e-01
Si    6.697538389600000e+00   4.066996061700000e+00   9.445778939400000e+00  3.79072704e-01  -2.79527530e-01  -2.97252781e-01
Si    9.460385336200000e+00   1.369257724300000e+00   9.475532957600000e+00 -1.85032123e-01  -8.97354053e-01   3.93340649e-01
Si    9.434475510200000e+00   4.044208474900000e+00   6.879177582000000e+00 -2.09527060e-01   6.81391792e-02  -9.27550130e-01
Si    1.151221088700000e-04   5.369967483200000e+00   5.496345199900000e+00  1.97267963e-01  -1.69973750e-01  -6.98279632e-01
Si   -1.484461389500000e-02   8.025591309299999e+00   8.044033929399999e+00  6.83060639e-01   5.37557319e-01  -6.70321093e-02
Si    2.787879305500000e+00   5.424434442100000e+00   8.101862916600000e+00 -5.35972244e-01  -7.94525119e-01   1.34990709e-01
Si    2.692737272400000e+00   8.151265650499999e+00   5.441746753300000e+00 -1.64504681e-01  -4.91510420e-01   9.72088782e-03
Si    1.424317525200000e+00   6.705260630400000e+00   6.782165195700000e+00 -4.61391906e-01   4.38047669e-01  -5.19940481e-01
Si    1.351891832000000e+00   9.343874203000000e+00   9.398358678599999e+00 -1.50170787e-01   6.48068596e-01   6.90328879e-01
Si    4.085041650000000e+00   6.727872943400000e+00   9.442493474600001e+00 -9.27726685e-02   8.25613209e-02   8.86125740e-01
Si    4.037118982900000e+00   9.458019739399999e+00   6.826894886600000e+00 -1.50560222e-01   6.05780802e-01  -3.31848635e-01
Si    5.322448989000000e+00   5.410267329600000e+00   5.369458300300000e+00  8.33821826e-01   5.69951346e-02   1.21939379e-01
Si    5.365688697800000e+00   8.103263757800001e+00   8.174239277500000e+00  4.12227262e-01   4.69529993e-01  -4.77901602e-01
Si    8.022177993200000e+00   5.462650410200000e+00   8.084250247800000e+00  2.96461646e-02  -4.00622807e-01   2.91798096e-01
Si    8.098331639200000e+00   8.084764895999999e+00   5.421590730000000e+00 -2.44851326e-01   5.09588097e-01  -2.72779458e-01
Si    6.637771794000000e+00   6.805374294400000e+00   6.750959027000000e+00  5.24796549e-01  -4.62089254e-01  -3.65345075e-01
Si    6.770708092300000e+00   9.397373496900000e+00   9.509102194600001e+00 -7.66891118e-01   8.74172748e-01   1.06065172e-01
Si    9.487226295099999e+00   6.732888634900000e+00   9.380074753200001e+00 -7.27487747e-01  -2.65385507e-01   1.93864919e-02
Si    9.463540604200000e+00   9.459142597900000e+00   6.776278536500000e+00 -5.80649434e-01  -2.19764792e-01  -2.65481702e-02
