64
Lattice="10.8 0 0 0 10.8 0 0 0 10.8 " PBC="1 1 1" Properties=species:S:1:pos:R:3:force:R:3 Energy="0"
Si    1.668517842800000e-02  -9.769165054600000e-02   4.993814160900000e-02 -5.70867198e-02   5.81356697e-01  -7.16311273e-01
Si    3.432556206900000e-02   2.721080431000000e+00   2.678779185600000e+00 -7.55685849e-01  -4.63670893e-02  -2.42891310e-01
Si    2.646901596600000e+00  -7.507479966699999e-02   2.703036886200000e+00  3.14662679e-01   8.17715787e-01  -1.67405068e-01
Si    2.731145405000000e+00   2.706016206700000e+00   5.624605542600000e-02 -1.15812677e-02  -2.41391343e-01  -3.19461162e-01
Si    1.327211608400000e+00   1.328297585400000e+00   1.323271146600000e+00  4.50073363e-01  -1.28674603e-01   5.77636617e-01
Si    1.358803214000000e+00   4.073691107900000e+00   4.008072218700000e+00 -1.99349861e-01   3.35857146e-01   1.21456774e-01
Si    3.977650461100000e+00   1.330458594100000e+00   4.092428922300000e+00  4.47165716e-01   8.58319912e-02  -4.52343228e-01
Si    4.065961943300000e+00   4.078327479400000e+00   1.383020842200000e+00 -5.67534634e-02  -1.96856965e-01   1.71266754e-01
Si    5.461810382400000e+00   4.848982622700000e-02   5.121179122200000e-02 -2.80343762e-01   2.04687294e-01  -2.81680268e-01
Si    5.401209272800000e+00   2.760067864800000e+00   2.771252975600000e+00 -5.10869711e-02  -7.02225982e-01  -4.71597152e-02
Si    8.138442800400000e+00   3.831532783500000e-02   2.673826873400000e+00  1.70949836e-01  -1.73357341e-01   2.19632703e-01
Si    8.140280253500000e+00   2.696931838100000e+00  -2.746965601900000e-02  2.30260141e-01   7.45975561e-03  -2.19483573e-03
Si    6.804524086800000e+00   1.412953066200000e+00   1.366229500000000e+00 -5.08025761e-01   2.44007501e-01   4.57722981e-01
Si    6.749771491700000e+00   4.135105524100000e+00   4.109442852400000e+00 -3.29847328e-01  -7.33325964e-01  -3.05297783e-01
Si    9.422485902600000e+00   1.399790068800000e+00   4.063606184900000e+00  4.30155298e-01   5.98656533e-02   4.25620030e-02
Si    9.502084487099999e+00   4.098647614900000e+00   1.263793861900000e+00  1.23790326e-01  -6.31744123e-01   5.09938213e-01
Si    7.652385549600001e-02   5.381338863500000e+00  -1.296972192300000e-01 -2.24606607e-01   5.62364579e-02   8.33261219e-01
Si   -2.736226482000000e-02   8.055358786899999e+00   2.748561225900000e+00 -2.82827187e-02  -4.30195575e-01  -1.80396042e-01
Si    2.706086756100000e+00   5.466473195900000e+00   2.655525512900000e+00 -2.40720667e-01  -1.89275937e-01   2.46353357e-01
Si    2.711494516200000e+00   8.127865543300000e+00  -2.576901728500000e-02  5.83511855e-02  -3.42787834e-01  -7.90263787e-02
Si    1.324909399500000e+00   6.763360321500000e+00   1.290561899900000e+00  1.25280404e-01   1.86744978e-01   1.96187355e-01
Si    1.267840517200000e+00   9.448066555000000e+00   4.074506471400000e+00  2.41757987e-01  -1.37885976e-04  -5.19031093e-01
Si    4.019065409900000e+00   6.860313202700000e+00   3.989852158400000e+00  2.21087629e-01   4.39576605e-02  -1.83274731e-01
Si    4.073408608700000e+00   9.487930380900000e+00   1.291834006700000e+00 -2.73786467e-01  -1.36715555e-01   6.30307717e-01
Si    5.437086950000000e+00   5.374729988600000e+00   6.100341415400000e-02 -5.64770561e-02   3.36467251e-01  -4.43984805e-01
Si    5.436073720500000e+00   8.190356727099999e+00   2.669312461900000e+00  8.06982249e-02  -3.28716772e-01   2.15729315e-01
Si    8.123278402500000e+00   5.326494723500000e+00   2.723541260700000e+00  3.53736114e-01   5.66516239e-01  -3.40865870e-01
Si    8.106255696500000e+00   8.045230088200000e+00   1.696331982600000e-03  3.19308121e-01   9.95991399e-03   3.36926473e-01
Si    6.787780375300000e+00   6.706216595200000e+00   1.423380671900000e+00 -1.91529937e-01   4.95947661e-01  -4.01152625e-01
Si    6.797989915700000e+00   9.527293192300000e+00   4.058651109900000e+00 -6.16403703e-01  -2.17542073e-01  -1.57082591e-01
Si    9.394785165900000e+00   6.698612899300000e+00   4.100356987600000e+00  4.81303754e-01   3.84410581e-02  -6.98005157e-02
Si    9.479050258199999e+00   9.396846340300000e+00   1.381945273200000e+00 -7.17741750e-01  -1.26140293e-01  -5.15144522e-02
Si   -6.541345158800000e-03   7.145655963900000e-03   5.412139745300000e+00 -1.01249761e+00   5.53295586e-02  -2.97743804e-01
Si    1.382489910600000e-02   2.675485511900000e+00   8.092632966700000e+00 -2.37646878e-01  -2.03127037e-01   4.90529941e-01
Si    2.666276885400000e+00   4.545729339100000e-02   8.067356632699999e+00  4.21566941e-01  -3.35335644e-01   4.46425707e-01
Si    2.585579757300000e+00   2.690028076300000e+00   5.395462134800000e+00  1.17913913e+00   3.38714309e-01  -4.15859451e-01
Si    1.312340077600000e+00   1.342823903700000e+00   6.712574243200000e+00 -1.00346945e-01   6.99807859e-02   6.31877536e-01
Si    1.443874361000000e+00   4.010207363100000e+00   9.417056907399999e+00 -3.07084213e-01  -2.59218860e-01  -2.68659026e-01
Si    4.057307857300000e+00   1.339087778300000e+00   9.496738737099999e+00 -8.70404824e-03   1.67459481e-01  -5.14863122e-01
Si    4.075219949800000e+00   4.039415417100000e+00   6.629415762000000e+00  2.59482924e-02  -5.32850870e-03   5.44479525e-01
Si    5.405689287700000e+00   1.412681047800000e-02   5.453080141800000e+00 -2.49983462e-01   2.20046856e-02  -6.11988142e-01
Si    5.397237283600000e+00   2.676385005100000e+00   8.078004715400001e+00 -3.88210116e-01   3.32210545e-01   3.10878003e-01
Si    8.078322224500001e+00  -6.477275804400000e-02   8.123203696099999e+00  8.30933245e-01   2.75722804e-01  -9.21771997e-02
Si    8.027518251200000e+00   2.725201125500000e+00   5.437602255400000e+00  3.72916654e-01  -5.02693233e-01  -6.78641196e-02
Si    6.758436742400000e+00   1.308996447800000e+00   6.810856961900000e+00 -4.55287182e-02   3.22110501e-01  -3.54026899e-01
Si    6.740644790700000e+00   4.022239670000000e+00   9.467633712100000e+00 -2.12197655e-02   9.03117413e-02  -3.77305682e-01
Si    9.477014839000001e+00   1.264219286300000e+00   9.471762858300000e+00  6.89609526e-02   3.06550328e-01  -2.18563905e-01
Si    9.405224195800001e+00   4.004664133100000e+00   6.781769923600000e+00  2.64342553e-01   1.36264814e-01  -1.99419245e-02
Si   -2.373747870800000e-02   5.332888052700000e+00   5.441028624500000e+00  1.86460490e-01   4.21958582e-01  -3.56699776e-01
Si    4.780634565600000e-03   8.028726987600001e+00   8.089345599200000e+00  1.58398896e-01   3.79609014e-01  -4.12325519e-01
Si    2.771973958100000e+00   5.356411230900000e+00   8.072178704700001e+00  2.02555400e-01   2.45066356e-01  -1.72813808e-01
Si    2.661399759800000e+00   8.164352890500000e+00   5.350543314300000e+00  2.04409363e-01  -6.44829942e-01   5.97957368e-01
Si    1.412716722200000e+00   6.705115294500000e+00   6.719194535300000e+00 -4.92122683e-01   1.71836629e-01   1.22287003e-01
Si    1.351188152600000e+00   9.443799709700000e+00   9.417008690799999e+00 -6.60430209e-02  -2.08217542e-01  -1.37643565e-01
Si    4.081303388700000e+00   6.725416875200000e+00   9.474185504699999e+00  8.72297740e-02   1.93366102e-01  -5.84644835e-02
Si    4.017351100800000e+00   9.461039172300000e+00   6.734303895000000e+00  4.53166392e-02   2.22781701e-01   3.83099588e-01
Si    5.381999181100000e+00   5.531431985600000e+00   5.325958908600000e+00 -4.03125119e-01  -4.19922682e-01   6.22149377e-01
Si    5.388159443000000e+00   8.188110265200001e+00   8.158089949300001e+00 -1.85729876e-01  -5.57013307e-01  -1.73112391e-01
Si    8.045272346899999e+00   5.383842762700000e+00   8.063270986599999e+00 -7.94996760e-02   1.13084352e-01   3.45396316e-01
Si    8.030477975900000e+00   8.081983687599999e+00   5.397649500400000e+00  6.38477790e-01   3.37823173e-01  -4.36425538e-02
Si    6.688491776800000e+00   6.810916053300000e+00   6.764046573500000e+00 -4.12985928e-02  -2.12458111e-01   3.33275792e-01
Si    6.769130596400000e+00   9.482809712000000e+00   9.525563393600001e+00 -1.36382693e-01  -5.71001332e-01  -9.87309447e-02
Si    9.449754001800001e+00   6.680585971700000e+00   9.417940600200000e+00 -3.58985558e-01   3.97216840e-01  -2.04912752e-01
Si    9.438207453600000e+00   9.409965139000001e+00   6.720449493500000e+00 -1.51803864e-03  -1.25853813e-01   4.70875174e-01
