64
Lattice="10.8 0 0 0 10.8 0 0 0 10.8 " PBC="1 1 1" Properties=species:S:1:pos:R:3:force:R:3 Energy="0"
Si    3.827825275100000e-02  -8.540150885599999e-02   2.865131203300000e-02 -1.11146756e+00   2.10722741e-01   5.52488509e-01
Si   -4.491002410600000e-02   2.751635693400000e+00   2.664393173000000e+00  1.51954203e+00  -1.21528146e+00   7.84484281e-01
Si    2.658321032000000e+00  -3.788481590500000e-02   2.680495028500000e+00  5.46873814e-01   1.01836422e-02   5.06243743e-01
Si    2.696281964200000e+00   2.696316479800000e+00   7.411776189900000e-02  1.00624732e+00   1.77389740e-01  -1.70798496e-01
Si    1.353474837000000e+00   1.308968836400000e+00   1.346246417600000e+00 -6.98389461e-01   5.77726970e-01   4.11452178e-01
Si    1.360978177700000e+00   4.086012413800000e+00   4.032612754800000e+00 -7.56045467e-01  -3.03074510e-01  -6.00131729e-01
Si    3.972373058000000e+00   1.329771983500000e+00   4.118209403700000e+00  6.34730259e-01  -2.72460855e-01  -1.14008194e+00
Si    4.112799622800000e+00   4.101331752000000e+00   1.409193443000000e+00 -6.17035903e-01  -1.21586999e+00  -1.30579547e-01
Si    5.497165081400000e+00   4.163685274400000e-02   8.430928035900000e-02 -1.09096864e+00   4.39415839e-01  -6.41525621e-01
Si    5.405320146500000e+00   2.700656167900000e+00   2.795310039900000e+00 -5.28131468e-01   7.95264963e-02  -2.08088511e-01
Si    8.172286724399999e+00   2.566184282100000e-02   2.639835500100000e+00 -8.52200245e-01   6.62430493e-01   9.27337444e-01
Si    8.143741751800000e+00   2.682266298200000e+00  -4.587966676500000e-02  1.98825425e-01   2.92005390e-01   7.37671579e-01
Si    6.789789028700000e+00   1.445624431000000e+00   1.392387605400000e+00  2.44336935e-01  -4.12507410e-01   9.28003953e-02
Si    6.717048820700000e+00   4.105323364700000e+00   4.083706367200000e+00  1.55427805e-01  -4.13508446e-01   4.35401823e-01
Si    9.432862525299999e+00   1.370380081300000e+00   4.054133609200000e+00 -2.40152457e-01   6.53648655e-01  -3.19460700e-01
Si    9.586649793399999e+00   4.048272088300000e+00   1.273612237300000e+00 -2.05525236e+00   8.80931325e-01  -1.72652199e-01
Si    6.928632225299999e-02   5.416552415400000e+00  -1.138370297300000e-01 -1.04757184e-01  -5.69089769e-01  -4.77206753e-02
Si   -7.025341408600000e-03   8.069624601299999e+00   2.781563177100000e+00 -6.31736543e-01  -5.43482350e-01  -7.04673895e-01
Si    2.694055309400000e+00   5.413745208300000e+00   2.653808426200000e+00 -3.14968588e-01   9.67815190e-01   7.99833979e-02
Si    2.678623217600000e+00   8.108948912500001e+00  -2.409913900400000e-02  2.70445117e-01   9.25333837e-02  -5.17457847e-01
Si    1.295232039300000e+00   6.781429796100000e+00   1.265054839500000e+00  5.64029937e-01  -1.73951307e-01   1.17579178e+00
Si    1.279541747700000e+00   9.461207721699999e+00   4.067797038300000e+00  2.93770173e-01   2.77444081e-01  -2.57179855e-01
Si    3.999428777500000e+00   6.875777927500000e+00   3.973967069100000e+00  6.14313345e-01  -7.99108987e-01   1.08454836e-01
Si    4.062993251100000e+00   9.462492924199999e+00   1.295693987100000e+00 -2.33632206e-01   2.52437134e-01   3.50947481e-01
Si    5.435585466900000e+00   5.394499290000000e+00   6.851311573400000e-02  1.60643564e-01  -6.16063246e-02  -1.15052454e+00
Si    5.437547066300000e+00   8.195713523300000e+00   2.658798999300000e+00  3.15753941e-01  -1.12795320e-02   8.64906862e-01
Si    8.125333708699999e+00   5.343127281800000e+00   2.765535783100000e+00  4.50782513e-01  -2.44406274e-01  -1.33950528e+00
Si    8.139497488800000e+00   8.042421394300000e+00  -1.316301302200000e-03 -9.41777269e-01   1.46108083e-01   4.05603654e-01
Si    6.769147729600000e+00   6.705769048500000e+00   1.438720209100000e+00  4.67030788e-01   5.87913460e-01  -6.24132566e-01
Si    6.843462691900000e+00   9.566081615500000e+00   4.086490872600000e+00 -1.28309650e+00  -3.45572054e-01  -1.02940065e+00
Si    9.377767577800000e+00   6.710249193600000e+00   4.104881491200000e+00  1.29316836e+00  -1.47248897e-01   3.10834337e-01
Si    9.406983107100000e+00   9.382445539500001e+00   1.421144032000000e+00  1.39254683e+00  -1.09015745e-01  -1.00795167e+00
Si   -7.675013747700000e-02   4.857838041700000e-03   5.379675044900000e+00  5.14569270e-01  -1.23121413e-01   6.36428403e-01
Si    1.672476429500000e-03   2.726642443000000e+00   8.073565594500000e+00 -4.12740816e-01  -9.74517073e-01   9.52315520e-01
Si    2.685186570300000e+00   4.584523583000000e-02   8.057696186699999e+00  4.20949321e-01  -8.08559917e-01   6.74159778e-01
Si    2.606270606100000e+00   2.684111673800000e+00   5.336460830900000e+00  6.94580264e-01   4.23241423e-01   1.17424559e+00
Si    1.315340990700000e+00   1.333167167300000e+00   6.753699482600000e+00 -4.57164082e-01   3.70022909e-01  -7.37056435e-01
Si    1.472208772500000e+00   4.003969160200000e+00   9.407853772399999e+00 -8.85072188e-01   4.28729107e-01  -1.15443735e-01
Si    4.051564369200000e+00   1.355375193900000e+00   9.490158897600001e+00  1.30065749e-01  -2.63141822e-01   1.63539761e-01
Si    4.080832371200000e+00   4.085818615700000e+00   6.624968642100000e+00 -1.33635094e-01  -1.00411993e+00   5.52733967e-01
Si    5.398845637800000e+00   2.873700424200000e-02   5.441352570700000e+00  1.25719436e-01  -4.45578272e-03  -6.66264854e-01
Si    5.390332034400000e+00   2.689341330600000e+00   8.110014470399999e+00 -5.37351118e-01  -2.76615054e-02  -8.50774684e-01
Si    8.113589669100000e+00  -6.893158172699999e-02   8.104955817800001e+00  1.41611139e-01   7.83005293e-02  -2.32509691e-01
Si    8.047031259700001e+00   2.718595747900000e+00   5.424124956200000e+00 -2.52842162e-02  -5.53460528e-01  -4.18000612e-01
Si    6.752668590300000e+00   1.307887916200000e+00   6.785538515000000e+00  1.09737763e-01   5.43128447e-01   2.59835902e-01
Si    6.742102106500000e+00   3.968146755000000e+00   9.437516302400001e+00  1.28476517e-01   1.26693045e+00   4.92473950e-01
Si    9.437751595700000e+00   1.240989535400000e+00   9.499376042200000e+00  9.93361778e-01   8.15688155e-01  -9.80347117e-01
Si    9.417366284500000e+00   4.023875480500000e+00   6.719528212100000e+00 -3.13194289e-01  -3.54459967e-02   1.08370042e+00
Si   -9.715591948999999e-03   5.299585842200000e+00   5.464149089900000e+00  3.10969000e-01   1.72938397e+00  -8.58332800e-01
Si    1.338700643400000e-02   8.023127968400001e+00   8.093690746200000e+00 -2.79456543e-02   4.54213450e-01  -3.57397618e-01
Si    2.772978768000000e+00   5.373431931700000e+00   8.039277588099999e+00  5.77805092e-02  -9.69960245e-02   2.64439882e-01
Si    2.626292058200000e+00   8.110643793300000e+00   5.353518287300000e+00  7.22262247e-01   4.70089528e-01   5.51072392e-01
Si    1.416540679900000e+00   6.717893530000000e+00   6.750415473600000e+00 -9.68278505e-01  -3.15174586e-01  -2.28594917e-01
Si    1.305512171800000e+00   9.458505705600000e+00   9.422075228900001e+00  9.58260328e-01  -4.60738033e-01  -5.14867246e-01
Si    4.047649047800000e+00   6.714473904900000e+00   9.443165735299999e+00  4.96108769e-01   4.66924250e-01   3.90148763e-01
Si    4.060018632900000e+00   9.463126219099999e+00   6.694274861200000e+00 -7.58764718e-01  -3.09833496e-01   6.96603723e-01
Si    5.406912448600000e+00   5.528544204700000e+00   5.378183275800000e+00 -8.56528344e-01  -9.91483490e-02  -6.87898439e-01
Si    5.400331683800000e+00   8.169505967099999e+00   8.144202832000000e+00 -7.59563805e-01  -2.46444781e-02   2.29777640e-01
Si    8.072094546900001e+00   5.387086466100000e+00   8.098870709500000e+00 -5.35511662e-01  -2.16276965e-01  -5.15351915e-01
Si    8.055831693900000e+00   8.121511692500000e+00   5.367071967300000e+00 -1.69614177e-01  -7.17731868e-01   9.30518075e-01
Si    6.659404311700000e+00   6.811250673000000e+00   6.800853089200000e+00  1.48060491e+00  -4.25436514e-02  -2.74138788e-01
Si    6.758591940300000e+00   9.496934077500001e+00   9.511322328900000e+00  4.64067178e-01  -9.05288753e-01  -2.60084594e-02
Si    9.426803453900000e+00   6.713554082400000e+00   9.404515007200001e+00  3.91317875e-01  -3.25266821e-02   1.99074612e-01
Si    9.451432997800000e+00   9.361736070899999e+00   6.713877603400000e+00  3.13503182e-02   4.97965932e-01   5.29382353e-01
