64
Lattice="10.8 0 0 0 10.8 0 0 0 10.8 " PBC="1 1 1" Properties=species:S:1:pos:R:3:force:R:3 Energy="0"
Si   -4.018478843900000e-02   8.581349053900000e-02  -9.630893765600000e-03  1.51421055e-01  -5.60434779e-01   5.44239679e-01
Si   -6.600080455600001e-02   2.670539819600000e+00   2.726344400100000e+00  1.26603000e+00   3.92672581e-02   4.25691987e-01
Si    2.719001589700000e+00   3.871724708900000e-02   2.667185280900000e+00  7.38161070e-01  -2.78989743e-01   5.65314647e-01
Si    2.661948694600000e+00   2.751736134500000e+00  -1.561048249000000e-02  4.22757549e-01  -6.52357482e-01   1.23619322e-01
Si    1.383670443600000e+00   1.365058097500000e+00   1.376185392900000e+00 -9.92809051e-01   5.75476894e-01  -5.07187422e-01
Si    1.375234050700000e+00   4.013803411200000e+00   4.111349561400000e+00 -6.45467955e-01  -3.72237748e-01  -5.92435359e-01
Si    4.078124533200000e+00   1.379467787700000e+00   4.058360796800000e+00 -1.83346947e-02  -3.64315291e-01  -4.87942876e-02
Si    4.072242279800000e+00   4.051427218800000e+00   1.321141275900000e+00 -1.46348088e-02  -3.14627050e-01  -9.40683204e-02
Si    5.391997194500000e+00  -7.179032173900000e-02  -2.961863882900000e-02 -6.91528917e-01   8.28840243e-02   2.68703533e-01
Si    5.433695063500000e+00   2.648527536700000e+00   2.635088160500000e+00 -8.17543089e-01   4.86807425e-01   3.95687477e-01
Si    8.072608789800000e+00  -4.774450175500000e-02   2.663913449000000e+00 -3.21630805e-01   5.04937966e-01   7.64150382e-01
Si    8.087082316100000e+00   2.692139022800000e+00   6.377340378500000e-02 -2.36193897e-01  -3.05778501e-02  -6.63870076e-01
Si    6.679296462800000e+00   1.267201723700000e+00   1.326044043200000e+00  1.12870034e+00   1.86672197e-01  -2.68243622e-01
Si    6.749679222200000e+00   3.978799731100000e+00   4.005838753700000e+00  1.66324584e-01   5.27575072e-01   1.80618814e-01
Si    9.467244702100000e+00   1.257486279300000e+00   4.067857211500000e+00 -6.78361946e-01   3.83005906e-01  -7.62251958e-01
Si    9.427759335899999e+00   4.051611412600000e+00   1.419880908700000e+00 -5.41773652e-01   2.72134445e-02  -7.43900498e-02
Si   -7.171176793800001e-02   5.421786549500000e+00   9.545603795300001e-02  2.48214805e-01   4.97802113e-02  -6.37647485e-01
Si    5.729036507700000e-02   8.194085722300001e+00   2.715344641400000e+00 -4.18619982e-01  -1.86601531e-01  -3.97068975e-01
Si    2.706652268700000e+00   5.292272231600000e+00   2.724862589300000e+00 -8.40639292e-02   9.62254208e-01  -1.50848779e-01
Si    2.654423975400000e+00   8.059925254200000e+00   1.794819512500000e-02  2.44349247e-02   5.59029704e-01   2.01325821e-02
Si    1.322040824500000e+00   6.737970045600000e+00   1.413882511300000e+00  4.88752645e-01  -2.76444300e-01   8.68546840e-02
Si    1.449551942500000e+00   9.484129048700000e+00   4.051693861400000e+00 -3.84012705e-01  -1.51396967e-01   2.05867803e-01
Si    4.051033490800000e+00   6.642047760600000e+00   4.106149049900000e+00  1.12460358e-01  -3.52061500e-01   5.34886871e-02
Si    4.037120789200000e+00   9.401128089800000e+00   1.368321338700000e+00  1.12880766e-01  -1.23271446e-01   1.40452478e-02
Si    5.350966347900000e+00   5.425040420200000e+00  -7.355526704800000e-02  7.68325103e-01  -8.96413524e-02   3.82567784e-01
Si    5.357190028100000e+00   8.032929054300000e+00   2.796803850500000e+00  1.23179372e-01   2.98429213e-01  -1.00405418e+00
Si    8.079056352700000e+00   5.439849564500000e+00   2.733959894000000e+00 -1.55651732e-01  -1.59326491e-01  -5.20317543e-01
Si    8.103242132700000e+00   8.185059900700001e+00  -9.435934317300000e-03 -1.08571939e+00  -6.87827279e-01  -2.57986668e-01
Si    6.718897727500000e+00   6.776447513300000e+00   1.323511424700000e+00  5.70294786e-02  -4.04506971e-02   1.01846575e-01
Si    6.731220125400000e+00   9.430866297300000e+00   4.049688061400000e+00  3.80905793e-01  -1.91807442e-01   2.07237623e-02
Si    9.492286383000000e+00   6.810922043200000e+00   3.982953856700000e+00 -2.52872935e-01   1.00329373e-01   3.28401872e-01
Si    9.400608305500000e+00   9.464448889500000e+00   1.353787463700000e+00  1.41865060e+00   3.88962441e-01  -2.89203503e-01
Si    3.364161685700000e-02  -9.381580893900000e-03   5.383416237300000e+00  4.51783758e-01  -2.73267905e-01   6.68736304e-01
Si    1.782008218100000e-02   2.735519825800000e+00   8.068894232200000e+00 -8.48675394e-01   1.33139021e-03  -1.01495140e-01
Si    2.743275949000000e+00  -3.137328343500000e-02   8.061658774100000e+00 -2.85710431e-01   8.29803825e-02   5.03966126e-01
Si    2.734268857800000e+00   2.702570385700000e+00   5.465222509300000e+00 -1.75398281e-01  -2.60166111e-01  -3.56110480e-01
Si    1.353133111600000e+00   1.358558392900000e+00   6.780163016200000e+00  2.79704911e-01  -3.46609354e-01  -3.87652134e-01
Si    1.249158404400000e+00   4.059618109800000e+00   9.488531166900000e+00  3.96613231e-01   6.59973607e-01   8.70410079e-02
Si    4.051983996700000e+00   1.324490203900000e+00   9.478885710600000e+00 -3.23714515e-01   2.88818073e-01  -3.08830196e-01
Si    4.016495764300000e+00   4.076429091700000e+00   6.797010492900000e+00  3.11276440e-01  -1.04482290e-01   3.93771257e-01
Si    5.448761642200000e+00  -2.479701737400000e-03   5.397700673600000e+00 -5.60204254e-01   1.81296125e-01  -7.26398427e-02
Si    5.388356672500000e+00   2.696954753300000e+00   8.117303637299999e+00  3.88061073e-01   5.96803739e-02  -3.05563517e-01
Si    8.103832120800000e+00   4.753781160600000e-02   8.031344161900000e+00 -3.45580736e-01  -2.04369834e-01   4.17165168e-01
Si    8.122858649199999e+00   2.671806371800000e+00   5.334621512900000e+00  5.33031853e-01   5.32272222e-01  -5.33470211e-02
Si    6.793289737600000e+00   1.420511723700000e+00   6.671487346300000e+00 -8.26613079e-01  -5.80702724e-01   9.72638724e-01
Si    6.795606954700000e+00   4.072243367100000e+00   9.416583112300000e+00 -4.93996223e-01  -3.68351358e-01   7.62409385e-01
Si    9.434467286000000e+00   1.393323892900000e+00   9.405096593800000e+00 -1.78469246e-01   2.92684489e-01   2.26482331e-01
Si    9.448421136900000e+00   4.085247436300000e+00   6.675983200700000e+00  5.24907839e-01   6.58457862e-02   1.58536468e-01
Si    3.015097368800000e-02   5.483119276000000e+00   5.319595973800000e+00 -3.27003968e-01  -5.55444612e-01   8.20410832e-01
Si   -8.637347092500001e-03   8.160580503800000e+00   8.144089100200000e+00 -2.05693855e-01  -1.39888293e-01   1.19396910e-01
Si    2.612916321900000e+00   5.416193457700000e+00   8.129402741800000e+00  1.02126870e-02   2.17484694e-01  -1.81081811e-01
Si    2.707535927900000e+00   8.025776384700000e+00   5.394669286200000e+00  1.24012247e-01   6.75850016e-01  -7.99927239e-02
Si    1.290194035800000e+00   6.828718325300000e+00   6.759975287000000e+00  3.03045908e-01  -7.92696098e-01   1.93736939e-01
Si    1.333094752500000e+00   9.508112940200000e+00   9.489401936300000e+00  3.56796373e-01  -1.80973645e-01  -1.57438167e-01
Si    4.015565009300000e+00   6.789187546000000e+00   9.416455697600000e+00 -2.31632831e-01  -3.68712402e-01  -1.05284703e-01
Si    4.075009056000000e+00   9.390501519000001e+00   6.702388752800000e+00  1.71894156e-01   2.19507157e-01   7.19447051e-02
Si    5.470456199600000e+00   5.316983726400000e+00   5.458983144800000e+00 -3.27738874e-01   1.65396150e-01  -4.11121912e-01
Si    5.429233101000000e+00   8.029129919600001e+00   8.035770009400000e+00 -1.25537245e-01   3.15004627e-01   1.73452360e-01
Si    8.185905951900001e+00   5.416127302600000e+00   8.156366707400000e+00 -8.37062008e-02  -5.50323386e-01  -6.47021575e-01
Si    8.144465586200001e+00   8.113568277600001e+00   5.379408480400000e+00 -3.07250712e-01  -3.73756479e-01   3.12862377e-01
Si    6.851747596700000e+00   6.667599578500000e+00   6.778976003100000e+00 -2.36016708e-01   7.84591232e-01  -6.84928521e-01
Si    6.697784098400000e+00   9.463491044400000e+00   9.375272800999999e+00  9.96456268e-01  -1.78337566e-01  -1.94629492e-01
Si    9.429548690100001e+00   6.795894547700000e+00   9.490256086400001e+00  6.99149637e-01   2.05208382e-01   2.98467036e-01
Si    9.466389686699999e+00   9.461736375199999e+00   6.755611415500000e+00  6.69872151e-02   1.89900959e-01  -3.47467307e-01
