64
Lattice="10.8 0 0 0 10.8 0 0 0 10.8 " PBC="1 1 1" Properties=species:S:1:pos:R:3:force:R:3 Energy="0"
Si    2.467315006400000e-02  -1.089062623200000e-01  -4.114249852700000e-02 -2.84210427e-01  -7.72488777e-02   1.11138330e+00
Si   -4.565491296600000e-03   2.716889398000000e+00   2.636124326500000e+00  1.34589343e+00  -1.77098352e-01   7.30353498e-01
Si    2.575317666600000e+00   1.155350101200000e-03   2.696311791600000e+00  1.81169496e+00  -4.55413152e-01   5.98219695e-01
Si    2.722746015600000e+00   2.700923039400000e+00   2.592625563100000e-02  6.39693845e-01  -5.96446135e-01   2.51328675e-02
Si    1.362039712300000e+00   1.262665978500000e+00   1.323027721800000e+00 -1.03101137e+00   1.37003511e+00  -6.89369444e-01
Si    1.363850478500000e+00   4.116419229800000e+00   4.056792599900000e+00 -6.48226921e-01  -9.58506996e-01  -9.21627471e-01
Si    4.022030488800000e+00   1.318375389200000e+00   4.055933082300000e+00  1.02422815e-01   1.77237280e-01  -5.89139797e-01
Si    4.013829402200000e+00   4.150304450800000e+00   1.391992954200000e+00  2.73950483e-01  -1.39631766e+00   2.77581076e-01
Si    5.460270136100000e+00   6.775531594799999e-02   4.143070677000000e-03 -7.68491649e-01   1.14215960e-01   7.49930904e-01
Si    5.417916819400000e+00   2.732449763600000e+00   2.728447464300000e+00 -7.20972682e-01   1.73330588e-01   2.16298086e-02
Si    8.147735516499999e+00   1.688365762500000e-02   2.721869578500000e+00 -6.67086411e-01   8.99307573e-01   7.17166459e-01
Si    8.144743525899999e+00   2.737229786800000e+00  -1.691253861200000e-02 -2.68733796e-03  -4.33148459e-01   8.85068200e-03
Si    6.798658161400000e+00   1.450562774000000e+00   1.357031459200000e+00  1.04233362e-01  -8.15893516e-01   3.24990284e-01
Si    6.745814061100000e+00   4.087732774800000e+00   4.097050585000000e+00  1.26024176e-01  -6.21212073e-01   1.41309819e-01
Si    9.535626825400000e+00   1.436385753000000e+00   4.108663147800000e+00 -2.05497288e+00   1.98612764e-01  -9.19680208e-01
Si    9.498287367300000e+00   4.044829482700000e+00   1.318219699900000e+00 -6.09450007e-01   9.63422977e-01   5.60826394e-02
Si    7.836860263500001e-02   5.346028996700000e+00  -7.607314560500000e-02 -5.24981021e-01   8.58316680e-02  -4.84212307e-01
Si    7.415263226500000e-04   8.004025056200000e+00   2.689998684200000e+00 -7.13157490e-01   3.62883607e-01  -2.54672655e-02
Si    2.661579951200000e+00   5.472029775400000e+00   2.713118241100000e+00  3.70795100e-01   9.64309404e-01  -2.04511450e-01
Si    2.738816817900000e+00   8.112269211699999e+00   2.053149559700000e-02  4.26204264e-01   2.75921066e-01  -5.41942876e-01
Si    1.368324868800000e+00   6.773545430000000e+00   1.220862182100000e+00 -3.50194481e-01  -6.47908105e-01   1.39313691e+00
Si    1.255157807800000e+00   9.469906838000000e+00   4.024946899100000e+00 -2.44878519e-02  -6.23968514e-01   4.57489421e-01
Si    4.065760686400000e+00   6.934736165700000e+00   3.981369084900000e+00 -7.27053396e-01  -1.24716800e+00   5.61742909e-01
Si    4.042182087900000e+00   9.504558323300000e+00   1.363547678400000e+00  4.64964928e-01   1.08994307e-01   2.26935429e-02
Si    5.434780468600000e+00   5.369212631000000e+00   7.505577811200000e-02  1.01724783e-01   1.52870682e-01  -7.35560164e-01
Si    5.493153329000000e+00   8.128654536000001e+00   2.653781468500000e+00 -6.33293386e-01   7.35500060e-01  -2.83219604e-01
Si    8.067808539900000e+00   5.384036748600000e+00   2.719483788700000e+00  9.87498866e-01  -6.18582022e-01  -2.78699209e-01
Si    8.189144996300000e+00   8.051719192900000e+00   4.199422343500000e-02 -1.00501709e+00  -3.54050803e-01  -1.05825657e+00
Si    6.800761194900000e+00   6.718112235300000e+00   1.359887280000000e+00 -3.66667298e-04   3.35112273e-01  -1.29013475e-01
Si    6.720097620400000e+00   9.467621985599999e+00   4.087529399000000e+00  5.94638687e-01   4.04258149e-01  -8.71135155e-01
Si    9.416506370400000e+00   6.657381085400000e+00   4.109707385500000e+00  2.91458780e-01   8.19252934e-01  -4.53363440e-01
Si    9.383036780799999e+00   9.419848226599999e+00   1.382792048900000e+00  1.90909112e+00  -3.86951537e-02   8.47915894e-02
Si   -1.108601516100000e-01   7.937964488000000e-03   5.366006431200000e+00  1.12400826e+00  -6.97334116e-01   1.20559750e+00
Si    2.642391448400000e-02   2.648466606800000e+00   8.104770539200000e+00 -5.71116429e-01  -1.98010725e-01   1.64219918e-01
Si    2.642670353000000e+00   3.912390379000000e-02   8.104109724700001e+00  7.20504103e-02   1.30794718e-01   3.53878234e-01
Si    2.693907373000000e+00   2.736636678400000e+00   5.331230020700000e+00 -5.39305216e-02  -4.71155414e-01   4.51469603e-01
Si    1.341499635400000e+00   1.352762253400000e+00   6.681761638600000e+00 -3.06961146e-01  -9.50866099e-02  -9.92191611e-02
Si    1.439378327100000e+00   3.956280014200000e+00   9.394667763999999e+00 -5.90401558e-01   5.01171315e-01   3.46701181e-01
Si    4.096947411100000e+00   1.354389934900000e+00   9.399368884599999e+00 -8.43097638e-01  -2.50449123e-04   8.73727916e-01
Si    4.056658303200000e+00   4.061494508600000e+00   6.656531166200000e+00  4.30420539e-01  -4.10055085e-02   5.29517933e-01
Si    5.363889657200000e+00  -3.657247726800000e-02   5.427697345300000e+00  3.49668044e-03   6.90018335e-01  -4.02448268e-02
Si    5.389820757200000e+00   2.688375398000000e+00   8.075939063300000e+00  1.31441581e-01   1.55073434e-03  -9.70374418e-01
Si    8.118712720100000e+00  -3.266759525500000e-02   8.186088327400000e+00 -4.48732314e-01   5.10256743e-02  -2.84210524e-01
Si    8.088727880400000e+00   2.717892368800000e+00   5.525161016300000e+00  1.70555759e-01  -4.63517722e-02  -1.34971169e+00
Si    6.771825548500000e+00   1.281964067200000e+00   6.765292014200000e+00 -4.11676847e-01   1.61905876e-01   6.00929730e-01
Si    6.705951936700000e+00   3.978818354100000e+00   9.452542211300001e+00  7.20438054e-02   7.39353757e-01   3.20762440e-01
Si    9.473345843500001e+00   1.276930770100000e+00   9.531482529300000e+00  2.60002168e-01   8.31357113e-01  -9.36093869e-01
Si    9.423125574600000e+00   4.057369362500000e+00   6.834500331900000e+00  1.09400341e-01  -2.59842787e-01   2.61490820e-01
Si   -1.971854220200000e-02   5.314322934700000e+00   5.434774700000000e+00 -1.35416709e-01   5.95891541e-01   1.09116625e-01
Si    5.898011056000000e-02   8.064696974000000e+00   7.986709909000000e+00 -7.42625286e-01  -1.87546834e-01   6.44242862e-01
Si    2.761111033000000e+00   5.345946751300000e+00   8.108597484700001e+00  2.19072310e-01   7.27996196e-01  -1.79732447e-01
Si    2.648398884600000e+00   8.159218300399999e+00   5.431074528900000e+00  3.65049035e-01   2.66205079e-01  -5.69210648e-01
Si    1.388802560800000e+00   6.667293093700000e+00   6.698600126300000e+00  1.09975138e-01   3.86233836e-02   3.89217368e-01
Si    1.374554929200000e+00   9.371062053699999e+00   9.428406500600000e+00  6.22169722e-03   2.49490957e-01  -4.78945648e-01
Si    4.105844285200000e+00   6.736884724200000e+00   9.534370819599999e+00 -8.78987352e-02   7.64999150e-02  -9.65057149e-01
Si    3.987787856400000e+00   9.534333982200000e+00   6.809555473100000e+00  2.00783393e-01  -9.94902187e-01  -3.24284246e-01
Si    5.369268405100000e+00   5.485627778800000e+00   5.322641831600000e+00 -5.27780372e-01  -6.20043795e-03   5.90251300e-02
Si    5.396089669400000e+00   8.193108295800000e+00   8.139429231899999e+00 -2.63687679e-01  -6.05760223e-01   1.54735675e-01
Si    7.963389267800000e+00   5.389612073800000e+00   8.095195934400000e+00  4.89819260e-01   2.94800766e-01  -2.60961964e-01
Si    8.052809254900000e+00   8.117952153399999e+00   5.369945253700000e+00  2.09306632e-01  -6.94080776e-01   2.69222968e-01
Si    6.664472189700000e+00   6.802598484000000e+00   6.696248907200000e+00  3.03467801e-01   9.85813264e-02   8.10129783e-01
Si    6.761954882900000e+00   9.469839770200000e+00   9.563784141799999e+00  6.43982677e-01  -7.26524371e-01  -5.43327344e-01
Si    9.460642462499999e+00   6.697772474800000e+00   9.349533547000000e+00  3.27547686e-01   1.93474399e-01   5.54194605e-01
Si    9.358392181199999e+00   9.415185721800000e+00   6.761971409900000e+00  9.50051540e-01   2.95872550e-01  -1.94093328e-01
