64
Lattice="10.8 0 0 0 10.8 0 0 0 10.8 " PBC="1 1 1" Properties=species:S:1:pos:R:3:force:R:3 Energy="0"
Si    7.072498312700000e-02  -4.012840575500000e-03  -7.610045529900000e-02 -1.18598505e+00  -3.08673250e-01   1.39352366e+00
Si   -2.573502414900000e-02   2.725119580300000e+00   2.669815701200000e+00  1.66877835e+00  -1.14414138e+00   8.07276858e-01
Si    2.696804970300000e+00   5.155956688200000e-02   2.715988880600000e+00  1.25342365e-02  -7.71911601e-01   1.85567916e-01
Si    2.677598302700000e+00   2.648767322700000e+00  -5.950393027900000e-02  9.85603328e-01   8.83906924e-01   6.05662923e-01
Si    1.396259390100000e+00   1.328162978300000e+00   1.308982242000000e+00 -1.00341876e+00   4.36259727e-01   3.93409421e-01
Si    1.361216278500000e+00   4.085405173300000e+00   4.049676559500000e+00 -3.64763454e-01  -6.40426958e-01  -3.31255332e-01
Si    4.083932042900000e+00   1.389865893200000e+00   4.016753466100000e+00 -1.46172557e-01  -4.07377033e-01  -1.11409478e-01
Si    4.024020720700000e+00   4.085891976500000e+00   1.346212574100000e+00 -2.62617587e-01  -9.75636229e-01  -1.68205627e-01
Si    5.393172988400000e+00   5.838333737900000e-03  -5.484057967800000e-03 -2.22926208e-01   2.13586415e-01  -1.69309358e-01
Si    5.404039463300000e+00   2.713858499700000e+00   2.667875366200000e+00 -1.29917885e-01   4.34150054e-01   7.17565005e-03
Si    8.100671660100000e+00  -1.922354739400000e-02   2.752625860800000e+00 -6.35577101e-01   6.32849651e-01  -5.39197480e-02
Si    8.074613687899999e+00   2.691778947600000e+00  -3.276656833100000e-02  1.09543280e-01   2.43899806e-01   1.07587589e+00
Si    6.730408386900000e+00   1.364141264500000e+00   1.361050222000000e+00  5.44010259e-01  -5.48172743e-01  -1.47718758e-01
Si    6.752369771400000e+00   4.046419527500000e+00   4.023125102400000e+00  1.57305422e-01   2.51507776e-02   7.43103798e-01
Si    9.471051841600000e+00   1.371319266800000e+00   4.067798323900000e+00 -5.28334233e-01   1.21883213e-01  -3.18764870e-01
Si    9.487548581400000e+00   3.981685839200000e+00   1.376906232300000e+00 -1.81853664e+00   1.52767040e+00  -6.80928555e-01
Si   -3.714553293800000e-03   5.381771720900000e+00   4.954739678600000e-02  1.70264418e-01  -2.10274057e-01  -1.12457751e+00
Si    5.087594085000000e-03   8.062426631299999e+00   2.632804351600000e+00 -2.70176676e-01   2.95253485e-01   1.37202761e-01
Si    2.713344246500000e+00   5.415428051900000e+00   2.728339074700000e+00 -1.99609854e-01   5.02250429e-01  -3.73021611e-01
Si    2.765689176100000e+00   8.096427971000001e+00   3.749912167100000e-02 -2.58921846e-01   2.36787945e-01  -7.22000704e-01
Si    1.391642699100000e+00   6.748612272700000e+00   1.290067660300000e+00 -8.25569319e-02  -3.26346245e-01   9.33710503e-01
Si    1.324179544500000e+00   9.401911909800001e+00   4.016471944100000e+00  1.80691055e-01   6.07908269e-01   3.66557173e-01
Si    4.047268750000000e+00   6.796845145800000e+00   4.064744919200000e+00  2.94664745e-01  -7.55988421e-01   1.28412650e-01
Si    4.054145682500000e+00   9.482605252300001e+00   1.391194928900000e+00 -1.27146236e-01   2.42291945e-01  -4.73712611e-01
Si    5.386520586300000e+00   5.405013372800000e+00   3.997411536100000e-02  2.09658496e-01  -3.54202818e-01  -9.84309075e-01
Si    5.381522780800000e+00   8.073032403199999e+00   2.624388325400000e+00  3.51016907e-01   5.70275751e-01   1.33007163e+00
Si    8.069860290399999e+00   5.458913460200000e+00   2.697319959000000e+00  3.22949952e-01  -1.09194938e+00  -6.04888759e-01
Si    8.166955467099999e+00   8.073116717000000e+00  -1.757934820700000e-02 -1.01306251e+00   4.40522197e-01   1.60150934e-01
Si    6.727322787000000e+00   6.766685143900000e+00   1.307405738700000e+00  7.12668863e-01  -4.22124349e-02   2.11340140e-02
Si    6.727034708500000e+00   9.409767151200001e+00   4.091903297900000e+00 -5.34017099e-01   4.40609259e-01  -8.52829887e-01
Si    9.427827974200000e+00   6.760571088600000e+00   4.018878262900000e+00  7.50853974e-01  -2.10932466e-01   5.51035931e-01
Si    9.403240359200000e+00   9.481679781700000e+00   1.363047368800000e+00  1.37415943e+00  -1.18701518e-01  -6.93415524e-01
Si   -5.737853644700000e-02  -1.234871278100000e-02   5.380606738200000e+00  1.28980275e+00  -5.05131622e-02   4.88467322e-01
Si    1.507564149000000e-02   2.685733709300000e+00   8.103691845200000e+00 -1.34796020e-01  -4.32830545e-01   3.07504948e-01
Si    2.656339522900000e+00   2.529692528400000e-02   8.150952485600000e+00  4.76722818e-01  -7.91826851e-01  -3.14920656e-01
Si    2.755426371500000e+00   2.713487753100000e+00   5.318404195400000e+00 -5.41813032e-01   2.25192914e-01   1.55415757e+00
Si    1.396205917100000e+00   1.334332885300000e+00   6.764182033000000e+00 -7.10212986e-01   3.85463188e-01  -1.18361500e+00
Si    1.368111086300000e+00   4.019858262800000e+00   9.440591062799999e+00 -4.64895065e-01   7.53226951e-01   1.12416227e-01
Si    4.052455085500000e+00   1.380580156200000e+00   9.369857275699999e+00  2.45088406e-01  -5.27072285e-01   1.23590988e+00
Si    4.052182296400000e+00   4.075006091700000e+00   6.808178044900000e+00 -3.34474000e-01  -8.49181374e-01  -4.77514274e-01
Si    5.326670925200000e+00   1.547539171200000e-04   5.396788452200000e+00  8.86393815e-01   7.40951963e-03  -8.82775793e-02
Si    5.430980369400000e+00   2.731800399000000e+00   8.133888181300000e+00 -4.32092492e-01  -4.73035617e-01  -1.13406152e+00
Si    8.093707018300000e+00   2.015072394500000e-02   8.171978443200000e+00 -3.97080787e-01  -3.71635746e-01  -7.14182047e-01
Si    8.139162248200000e+00   2.711976074200000e+00   5.454489415500000e+00 -7.22690565e-01  -1.89413808e-01  -5.23185643e-01
Si    6.711413727200000e+00   1.315911522000000e+00   6.753048943000000e+00  5.01121148e-01   4.83408062e-01   1.99385403e-01
Si    6.734687663600000e+00   4.030470221200000e+00   9.439502403000001e+00  3.01853674e-01   1.03579633e+00   7.21309360e-01
Si    9.417716871000000e+00   1.348815906500000e+00   9.507412316200000e+00  9.64351739e-01   1.52998213e-01  -9.14491303e-01
Si    9.495543419000001e+00   4.048241392800000e+00   6.781805224800000e+00 -8.61727369e-01   2.82158215e-02   4.63184909e-01
Si   -1.875744452700000e-02   5.344723427100000e+00   5.423888748500000e+00  3.33911324e-01   1.33567918e+00  -5.68103857e-01
Si    2.718023868100000e-03   8.088438004000000e+00   8.056906136100000e+00 -3.77515928e-03  -2.24156988e-02   2.43371223e-01
Si    2.709224264700000e+00   5.431143230500000e+00   8.110940320499999e+00 -2.77494873e-01  -4.34898048e-01   2.46541763e-01
Si    2.701398579300000e+00   8.103310850900000e+00   5.438464370400000e+00  1.86443973e-01   7.07159307e-01  -1.69858461e-01
Si    1.375371764300000e+00   6.740661844000000e+00   6.745878679500000e+00 -5.83171655e-01  -2.76610794e-01  -1.68144157e-01
Si    1.348312106000000e+00   9.381481430699999e+00   9.455622030500001e+00  5.65054878e-01   6.91346978e-02  -2.32115873e-01
Si    4.068359803000000e+00   6.734986508500000e+00   9.447753131300001e+00  8.90290160e-02   2.86716354e-01   3.25953866e-01
Si    4.064446994100000e+00   9.503132125900001e+00   6.816048630800000e+00 -8.23834720e-01  -6.74180845e-01  -2.30624655e-01
Si    5.365379145100000e+00   5.345772843600000e+00   5.440257325700000e+00  7.48986713e-02   6.16048850e-01  -1.16982013e+00
Si    5.410063402600000e+00   8.075397850200000e+00   8.093062628600000e+00 -3.81824080e-01   5.34633824e-01   3.84073293e-01
Si    8.078410647600000e+00   5.422252283800000e+00   8.110484460700000e+00 -7.50916795e-02  -2.88252771e-01  -5.32013707e-01
Si    8.126929618200000e+00   8.134710508700000e+00   5.376942629600000e+00 -6.65903951e-01  -9.17998783e-01   8.52254034e-01
Si    6.661439229200000e+00   6.740698831700000e+00   6.725708137200000e+00  1.70387807e+00   1.68056758e-01  -1.72630567e-01
Si    6.743781196500000e+00   9.420697182900000e+00   9.467712670299999e+00  2.62569687e-01  -3.34077824e-02   1.10436794e-01
Si    9.462191986700001e+00   6.751958873200000e+00   9.419779221900001e+00  4.77900554e-01  -4.81283395e-01   3.12347989e-01
Si    9.425804918400001e+00   9.469780283100000e+00   6.776211182400000e+00 -9.10417682e-03   7.71078228e-02   6.64054058e-03
