64
Lattice="10.8 0 0 0 10.8 0 0 0 10.8 " PBC="1 1 1" Properties=species:S:1:pos:R:3:force:R:3 Energy="0"
Si    2.972729812800000e-02  -1.550236833200000e-02   5.215604177000000e-03 -2.94013942e-01   5.26702682e-01  -6.70417930e-01
Si    6.104914969400000e-02   2.668303472400000e+00   2.730917327500000e+00 -1.36891924e+00   2.62344517e-01  -7.02511996e-01
Si    2.718430510300000e+00   3.493375269700000e-02   2.735456317800000e+00 -3.94619687e-01   6.65318053e-02  -5.92940363e-01
Si    2.694060189600000e+00   2.699325200100000e+00  -3.339169347900000e-02 -7.18157071e-02   1.87897508e-01  -3.32117094e-02
Si    1.338946073100000e+00   1.364640879100000e+00   1.306573193800000e+00  7.49948814e-01  -3.52624787e-01   6.53938693e-01
Si    1.348452053100000e+00   4.018472317500000e+00   4.062520216400000e+00  3.15303867e-01   6.38970542e-01   1.66888769e-01
Si    4.095725754100000e+00   1.386394213000000e+00   4.024770278900000e+00 -1.74914424e-01   2.55441584e-02   1.04969421e-02
Si    4.025741331900000e+00   4.043212281800000e+00   1.316026265300000e+00 -3.03341098e-02   1.97141424e-01   2.12364306e-01
Si    5.384625871800000e+00  -2.550079165300000e-02  -1.522058289200000e-03  2.15574648e-01   1.75871641e-01  -3.53130350e-01
Si    5.402364779200000e+00   2.721670067500000e+00   2.628645637100000e+00  3.38702291e-01  -4.33964537e-01   2.94048629e-01
Si    8.043213074800001e+00  -3.068635239500000e-03   2.743997960200000e+00  5.56148476e-01  -2.91530853e-01  -4.64230197e-01
Si    8.026101495800001e+00   2.693536924900000e+00   3.523550749300000e-02  8.56863952e-01   6.23098750e-02  -1.09028470e-01
Si    6.758120634200000e+00   1.295627731700000e+00   1.332462796300000e+00 -7.75950612e-01   3.28956385e-01   3.46989241e-01
Si    6.761040809900000e+00   4.019137882600000e+00   4.031252092800000e+00 -1.26513215e-01  -6.85142942e-02  -1.00761068e-02
Si    9.429080473799999e+00   1.328160921200000e+00   4.029428459900000e+00  6.88435804e-01   7.36430964e-02   6.58048485e-01
Si    9.394987059000000e+00   4.037102751700000e+00   1.374764168700000e+00  6.80474985e-01  -2.11375320e-01   2.36256518e-01
Si   -2.772603410200000e-02   5.393954929500000e+00   1.344118953500000e-02  4.77152826e-02  -6.33291398e-02   5.70379652e-01
Si    2.503566949300000e-02   8.146317498600000e+00   2.617230468700000e+00 -3.07184129e-03  -5.44430781e-01   6.14478114e-01
Si    2.707508368400000e+00   5.391065688500000e+00   2.719707839400000e+00 -5.88649210e-03  -3.26837782e-01   8.01752278e-02
Si    2.738855639300000e+00   8.106870908399999e+00   2.614954929800000e-02 -1.39549271e-01  -4.02219027e-01  -1.41865565e-01
Si    1.390593186100000e+00   6.709754474200000e+00   1.328905983400000e+00 -3.78782278e-01   5.08003702e-01   1.86306630e-01
Si    1.368978222600000e+00   9.438240140600000e+00   4.045019393100000e+00  3.52274723e-02   4.81478809e-02  -2.37504533e-01
Si    4.051818567900000e+00   6.693389468300000e+00   4.129657910700000e+00  5.12549088e-02   6.82615109e-01  -6.85281514e-01
Si    4.043596635800000e+00   9.483471497200000e+00   1.366164592400000e+00 -3.38326424e-02  -2.43580799e-01   2.03844584e-01
Si    5.377958626300000e+00   5.383915017500000e+00  -1.494133558300000e-02 -1.31943946e-01   3.31966389e-01  -8.94015999e-02
Si    5.374455437500000e+00   8.084507444100000e+00   2.680561484100000e+00  1.25931696e-01  -2.82858495e-01   5.25848162e-01
Si    8.041219698000001e+00   5.415043776900000e+00   2.691325996600000e+00  6.18693314e-01   3.17742087e-01   9.54217092e-02
Si    8.121840148900001e+00   8.121185571800000e+00  -5.268918397400000e-02  4.10747544e-01   8.77648707e-02   6.32093901e-01
Si    6.745895983300000e+00   6.761283659300000e+00   1.280981827000000e+00 -1.75010907e-01   1.35439320e-01   3.79527168e-01
Si    6.733951193500000e+00   9.422950479800001e+00   4.081005052000000e+00 -4.51325055e-01   1.98794585e-02  -2.56061853e-01
Si    9.459425990600000e+00   6.790981523000000e+00   4.026545139500000e+00  1.11562896e-01  -3.40953921e-01  -1.74768484e-01
Si    9.464559589000000e+00   9.533945676900000e+00   1.337859789800000e+00 -8.42894251e-01  -8.25293401e-01   1.15815302e-01
Si    3.685502242500000e-02  -3.617151209000000e-02   5.398581016200000e+00 -6.97483067e-01   4.60401780e-01  -3.11192751e-01
Si    3.443922766000000e-03   2.721783398800000e+00   8.078671730400000e+00  3.60369570e-01  -3.97591786e-01   3.39410295e-01
Si    2.672003218600000e+00  -2.812713491600000e-02   8.130919359700000e+00  3.77458732e-01   2.65457436e-01  -2.75817804e-01
Si    2.746725193100000e+00   2.712953915400000e+00   5.375660016300000e+00  5.19022945e-02   1.20570098e-01   3.50907463e-01
Si    1.402639476900000e+00   1.340764404500000e+00   6.681446786700000e+00 -4.80506387e-01   1.61796457e-01   9.72500546e-01
Si    1.333481101400000e+00   4.110800497600000e+00   9.483090763900000e+00 -2.71237761e-01  -1.02603449e+00  -3.78170960e-01
Si    4.067214054700000e+00   1.362213885100000e+00   9.434037000500000e+00 -2.72122217e-02  -1.98530058e-01  -1.26160341e-01
Si    4.009789081600000e+00   4.071995170800000e+00   6.834286677200000e+00  2.31285889e-01  -1.85299598e-01  -6.38748886e-01
Si    5.362997038200000e+00   5.326672100700000e-03   5.393098090000000e+00  3.88193930e-01  -1.61885459e-01  -2.06759708e-02
Si    5.447647169500000e+00   2.716729422900000e+00   8.079581888300000e+00 -6.10106690e-01  -2.70846489e-03   5.72727219e-01
Si    8.032537776600000e+00   1.570184487400000e-02   8.130364840100000e+00  9.67743129e-01   2.10025249e-01  -3.08530912e-01
Si    8.140452946300000e+00   2.724597091400000e+00   5.410224851900000e+00 -4.21213157e-01  -5.24901592e-01   9.63609426e-03
Si    6.719507207000000e+00   1.332770135400000e+00   6.737526023400000e+00  5.62659251e-01   4.55267895e-01  -3.45458643e-01
Si    6.753862129500000e+00   4.059560118100000e+00   9.485897850700001e+00  9.86200495e-02   1.34974768e-01  -7.77337297e-01
Si    9.417779680700001e+00   1.378627640100000e+00   9.496018387900000e+00  3.24330151e-01  -2.44449949e-01  -5.37184385e-01
Si    9.475122920300000e+00   4.091978550200000e+00   6.755771690000000e+00 -2.83771015e-01  -4.35456775e-01   5.99280405e-02
Si    5.114500539400000e-03   5.397334306500000e+00   5.420320557300000e+00  8.20032701e-02   3.92715674e-01  -7.53458644e-01
Si   -4.108408875800000e-03   8.087748181500000e+00   8.097208868799999e+00  1.70882820e-01   3.81373435e-01  -2.39278525e-01
Si    2.626727112600000e+00   5.441938984100000e+00   8.138223863100000e+00  6.90439418e-01  -4.20663545e-01  -1.41437776e-01
Si    2.691829195800000e+00   8.125089668099999e+00   5.437473418800000e+00  2.48704995e-01  -6.15874470e-01  -9.75703461e-02
Si    1.346894788600000e+00   6.737006464600000e+00   6.770507508500000e+00 -2.93244373e-01   5.73324019e-01  -4.22114300e-01
Si    1.354149314900000e+00   9.382351039900000e+00   9.478863968100001e+00 -9.62157382e-02   5.24505952e-01  -1.72485944e-01
Si    4.023029120800000e+00   6.736581193200000e+00   9.430013285199999e+00  4.94429031e-01   3.94652430e-01   2.80368230e-01
Si    4.066049242400000e+00   9.454765199500001e+00   6.771796335500000e+00 -3.13839248e-01   6.10792911e-03   1.08230218e-01
Si    5.418510330900000e+00   5.313999220100000e+00   5.412563176800000e+00 -2.53090864e-01   3.58524985e-01   2.95455394e-01
Si    5.420785228600000e+00   8.074781735700000e+00   8.081631754900000e+00 -1.06161386e-01  -1.57901835e-01  -3.26690580e-02
Si    8.129662106700000e+00   5.417214634500000e+00   8.101426063400000e+00 -2.49805002e-01   9.90262349e-02   3.10709287e-01
Si    8.098339810000001e+00   8.100243586200000e+00   5.410736334000000e+00  3.81215302e-01   1.98131543e-01  -2.21803882e-01
Si    6.767620325100000e+00   6.729640590900000e+00   6.692610525600000e+00 -1.57191283e-01  -2.46167005e-01   7.43264997e-01
Si    6.753469093100000e+00   9.437945900800001e+00   9.433561807000000e+00 -5.86207223e-01  -9.72709788e-02   1.96536619e-01
Si    9.518473832600000e+00   6.760610886800000e+00   9.453453548800001e+00 -9.94239338e-01  -1.41384413e-01  -1.20639718e-01
Si    9.431762985600001e+00   9.477919951700001e+00   6.765154240300000e+00  8.07859321e-03  -1.70694779e-01   2.18570378e-01
