64
Lattice="10.8 0 0 0 10.8 0 0 0 10.8 " PBC="1 1 1" Properties=species:S:1:pos:R:3:force:R:3 Energy="0"
Si   -4.626859029800000e-02   1.053996426200000e-01   1.111092151100000e-02  2.43973417e-01  -8.83521091e-02  -4.62271183e-01
Si    4.338096584700000e-03   2.685326559800000e+00   2.781718336300000e+00 -1.20994740e+00   1.99110759e-01  -1.14068209e+00
Si    2.803823055600000e+00  -2.502801351800000e-03   2.675818713800000e+00 -1.41919274e+00   5.98637424e-02  -2.63337311e-01
Si    2.687398054300000e+00   2.683304121500000e+00   9.547700541600000e-04 -4.93830685e-01   8.38133102e-01  -2.18802087e-02
Si    1.295532995200000e+00   1.416977578700000e+00   1.379980238700000e+00  1.19834634e+00  -9.42090970e-01   1.94216564e-01
Si    1.312730976500000e+00   3.994940174400000e+00   4.059888753300000e+00  1.01877331e+00   7.65285064e-01   8.01090529e-01
Si    4.047646482400000e+00   1.307207679100000e+00   4.093116231300000e+00  2.99029743e-02   5.26014834e-01  -3.38810691e-02
Si    4.097745872600000e+00   4.035245705800000e+00   1.321707548700000e+00 -4.67675568e-01   2.76128332e-01  -8.19335125e-02
Si    5.309172429200000e+00  -8.814998045500000e-02  -3.055070805100000e-02  1.09442682e+00   3.55440938e-01  -2.48503889e-01
Si    5.352559113500000e+00   2.656162929600000e+00   2.723114343200000e+00  1.07102404e+00   3.43704975e-02  -5.27452261e-01
Si    8.085339079500001e+00  -2.783305771300000e-02   2.695860521200000e+00  2.09014559e-01  -4.85051411e-01  -9.05332379e-01
Si    8.116219683700001e+00   2.700907414100000e+00  -4.758969986900000e-02 -2.80118295e-01   6.91947129e-02   8.34263116e-01
Si    6.769261486000000e+00   1.316773662800000e+00   1.285560792800000e+00 -9.67237538e-01  -1.26559817e-01   3.49735555e-01
Si    6.762040063000000e+00   4.059624882100000e+00   4.012907740700000e+00 -9.67252897e-02  -2.92465294e-01  -2.53618439e-03
Si    9.438408402700000e+00   1.277102012500000e+00   4.000738042500000e+00  8.08691661e-01   7.05185835e-02   1.04591356e+00
Si    9.388715199800000e+00   4.053233056900000e+00   1.402217700300000e+00  7.98032597e-01  -3.61152614e-01  -2.31092900e-01
Si   -4.976527795600000e-02   5.456448614900000e+00   8.862126169200001e-02  1.32667693e-01  -2.72854275e-01   2.31980488e-02
Si    2.361023216900000e-02   8.165888439100000e+00   2.747394192100000e+00  3.04366435e-01  -8.87211592e-03   1.39802960e-02
Si    2.692497881100000e+00   5.352400776400000e+00   2.703296356000000e+00  1.73881496e-01  -8.50601034e-01   9.40111158e-02
Si    2.593663023200000e+00   8.108590524500000e+00   1.207891550000000e-02  4.46836293e-01  -4.74666792e-01  -1.03117073e-01
Si    1.338184763300000e+00   6.745556723000000e+00   1.475240323600000e+00 -2.11680227e-01   3.10847153e-01  -9.90325570e-01
Si    1.434142521600000e+00   9.485837175500000e+00   4.077115901100000e+00 -4.86798741e-02  -7.97235827e-02  -2.97378306e-01
Si    4.077904573200000e+00   6.597269805700000e+00   4.056142740500000e+00 -1.24392665e-01   1.02790065e+00   6.57363428e-02
Si    4.039324441100000e+00   9.311194823299999e+00   1.366480136000000e+00 -1.14683882e-01   9.16260880e-01  -3.52770802e-01
Si    5.452477347300000e+00   5.451040603300000e+00  -2.904673296800000e-02 -1.06241084e+00  -4.39936796e-01  -2.48685460e-02
Si    5.372302983800000e+00   8.030373486000000e+00   2.726178272300000e+00  3.74131313e-02   1.50403148e-03   6.52468713e-01
Si    8.084875419799999e+00   5.456076566500000e+00   2.680586158600000e+00  9.50627582e-03  -1.44344601e-01   5.56938200e-01
Si    7.937042236900000e+00   8.122169082399999e+00   2.965543201300000e-02  1.76499545e+00   6.40827430e-01  -4.84949804e-02
Si    6.703200246500000e+00   6.763734974800000e+00   1.391427502300000e+00  6.98825321e-02  -2.50885513e-01  -3.74201034e-01
Si    6.773136357400000e+00   9.397221750800000e+00   4.035517510100000e+00 -4.00058681e-01   1.83259745e-01   2.10353205e-01
Si    9.461166836600000e+00   6.809520239600000e+00   4.022794714400000e+00 -1.98224340e-02  -5.61793135e-01  -3.48051285e-02
Si    9.513283958800001e+00   9.439735607499999e+00   1.321721620300000e+00 -1.46554465e+00   1.70640737e-01   5.20125348e-02
Si    7.317753177899999e-02   6.848268763800000e-04   5.449879293800000e+00 -4.43867773e-01   2.67293347e-01  -1.01712019e+00
Si   -8.489617453499999e-02   2.744114220800000e+00   8.059829168200000e+00  1.43700945e+00   5.31600390e-02   2.96616136e-01
Si    2.763664131800000e+00  -2.073361529600000e-02   8.084312689600001e+00 -2.05216817e-01  -1.00859391e-01  -4.27560448e-01
Si    2.689629611500000e+00   2.654705711800000e+00   5.459264827400000e+00  1.13211235e-01   4.41644944e-01  -7.24659725e-02
Si    1.342857328500000e+00   1.330151571000000e+00   6.837502004600000e+00  1.45590612e-01   4.55498210e-01  -2.38459131e-01
Si    1.270802657200000e+00   4.086676123900000e+00   9.481275476900000e+00  2.05363796e-01  -1.98765374e-01  -9.13713369e-02
Si    3.991880432600000e+00   1.351579846800000e+00   9.442691294299999e+00  7.54463517e-01  -2.71037899e-01   2.40394671e-01
Si    4.079388253000000e+00   4.045842608800000e+00   6.811304729000000e+00 -6.20773247e-01   2.60769760e-02  -6.29655734e-01
Si    5.432967443300000e+00   5.041751639100000e-03   5.383169906300000e+00  4.07909944e-01  -3.94776725e-01   1.58168170e-01
Si    5.386527757400000e+00   2.689334633200000e+00   8.134234656400000e+00  3.30345708e-02  -7.58670719e-03   2.54952338e-01
Si    8.140572301800001e+00   3.637158816000000e-02   8.020151952899999e+00 -1.87482066e-01  -3.06808120e-03   6.97507316e-02
Si    8.163612572900000e+00   2.706586600900000e+00   5.308382133500000e+00 -8.97494509e-01  -2.93853992e-01   6.79454692e-01
Si    6.732660504600000e+00   1.399025056900000e+00   6.762508088300000e+00  6.67350057e-01  -6.78279136e-03  -9.60299657e-01
Si    6.751108546400000e+00   4.018962640900000e+00   9.466994765800001e+00  2.97609673e-01   6.33384036e-01  -5.99355572e-01
Si    9.421631083199999e+00   1.418817847000000e+00   9.378274150499999e+00  4.98279104e-02  -7.49088692e-01   4.52276794e-01
Si    9.510295616400001e+00   4.061963926800000e+00   6.639742200900000e+00 -8.26936201e-01  -1.03391676e-02   3.80215422e-01
Si   -5.506221701700000e-03   5.445175537400000e+00   5.364978246500000e+00  5.02245554e-01   1.18404341e-01  -2.78303642e-01
Si   -2.658719498600000e-02   8.204420772700001e+00   8.184836731000001e+00  3.84779760e-01  -4.61956515e-01  -4.55505011e-01
Si    2.642021276100000e+00   5.411080902200000e+00   8.079373422800000e+00  8.49330479e-02  -3.07676754e-01   4.03225422e-01
Si    2.748168636300000e+00   8.039201314500000e+00   5.349961258200000e+00 -2.72329907e-01  -1.51471459e-01   4.85212404e-01
Si    1.302746710000000e+00   6.787122093400000e+00   6.774893906200000e+00  5.79208497e-02   4.70973580e-01  -1.94915601e-01
Si    1.363004014900000e+00   9.589334607200000e+00   9.471132994100000e+00 -4.56917476e-01  -6.85266723e-01   3.14557500e-01
Si    3.986948255100000e+00   6.768488616700000e+00   9.414968957199999e+00  3.48735429e-01   6.59489432e-02   4.59211645e-01
Si    4.100759682400000e+00   9.405336960000000e+00   6.678730375700000e+00 -3.38889955e-01   2.41775339e-01   3.38114817e-01
Si    5.452219817100000e+00   5.366364100300000e+00   5.435063382300000e+00  1.60708281e-01  -2.76590014e-01   2.01044904e-01
Si    5.410078356100000e+00   8.061281627300000e+00   8.040697193400000e+00  1.42034936e-01  -2.26278331e-02   1.51424368e-01
Si    8.196971893500001e+00   5.333505500900000e+00   8.101351829800000e+00 -4.14497230e-01   7.98593882e-01   3.77272588e-01
Si    8.148784585500000e+00   8.087813387100001e+00   5.398366685900000e+00 -1.98449906e-01   3.96693244e-01  -6.12035809e-02
Si    6.842630754200000e+00   6.734237393200000e+00   6.746836578600000e+00 -2.80030281e-01  -4.97450154e-01   2.44861500e-01
Si    6.784333102100000e+00   9.460896567800001e+00   9.317825290000000e+00 -1.10503687e+00   1.84184326e-01   8.64730945e-01
Si    9.423907152100000e+00   6.840738992100000e+00   9.547270588000000e+00 -3.38133871e-01  -6.64873913e-01  -6.24989998e-01
Si    9.491929638400000e+00   9.469097513199999e+00   6.702436672400000e+00 -2.36406781e-01  -1.15510155e-01   5.30667473e-01
