64
Lattice="10.8 0 0 0 10.8 0 0 0 10.8 " PBC="1 1 1" Properties=species:S:1:pos:R:3:force:R:3 Energy="0"
Si   -3.310717513700000e-02   1.232772998000000e-02   4.335326843100000e-02  8.90801986e-01   7.07467678e-01  -1.38576099e+00
Si    5.888051754400000e-02   2.627812368000000e+00   2.750185420400000e+00 -1.83465441e+00   1.22902606e+00  -5.95774563e-01
Si    2.715057325300000e+00   2.068486768100000e-02   2.714538387500000e+00  6.63705748e-02   5.22204346e-01  -3.94206173e-01
Si    2.706463236500000e+00   2.761387406800000e+00  -8.962512887300000e-03 -9.19297258e-01  -1.05638254e+00  -5.02671266e-01
Si    1.329942358000000e+00   1.377848750300000e+00   1.348178516900000e+00  9.89338639e-01  -4.38954053e-01  -2.39689541e-01
Si    1.355077885600000e+00   3.992529912000000e+00   4.084652584500000e+00  2.43758253e-01   6.88177356e-01   1.12000412e-01
Si    4.093819742300000e+00   1.381671581400000e+00   4.034206727200000e+00 -1.85842777e-01   7.71873488e-02   2.27134488e-01
Si    4.028862660500000e+00   4.013617181600000e+00   1.302527260500000e+00  6.26145854e-01   1.05635705e+00   4.89535006e-01
Si    5.388735676100000e+00  -4.536233384300000e-02  -2.060049373700000e-02  5.06121074e-02  -1.31418411e-01   1.70280354e-01
Si    5.421517049500000e+00   2.700774395000000e+00   2.612034394800000e+00 -4.88997059e-02  -4.76864816e-01   5.20491051e-01
Si    8.024125511899999e+00  -5.665140085300000e-03   2.704535381800000e+00  1.00696203e+00  -6.27240389e-01  -4.01340448e-02
Si    8.037509440799999e+00   2.699807530100000e+00   9.593917107699999e-02  4.94662965e-01  -2.15802990e-01  -1.32773565e+00
Si    6.735183568400000e+00   1.250442978800000e+00   1.325459540500000e+00 -5.40805766e-01   8.97237764e-01   1.00866652e-01
Si    6.761291784800000e+00   3.989073698100000e+00   4.039366353000000e+00 -1.86155682e-01   2.57120718e-01  -6.58306098e-01
Si    9.431302176000001e+00   1.290311023000000e+00   4.034411310200000e+00  5.08501130e-01   3.12268219e-02   4.39364133e-01
Si    9.346230371800001e+00   4.083127826900000e+00   1.384011949200000e+00  1.96770767e+00  -1.15537294e+00   3.49415873e-01
Si   -4.855430584900000e-02   5.401899650400000e+00   1.533271865700000e-02 -6.74944946e-02   1.82727525e-01   1.20283985e+00
Si    4.288384105100000e-02   8.193282877900000e+00   2.647226011700000e+00 -3.18782900e-03  -6.22929659e-01   5.45383125e-01
Si    2.701218975400000e+00   5.347032172800000e+00   2.715078049600000e+00  1.92097003e-01  -2.29871951e-01   2.27092787e-01
Si    2.699924641200000e+00   8.091000803000000e+00   3.949861165100000e-03 -7.31273824e-02  -2.43885589e-01   5.71012014e-01
Si    1.362282598400000e+00   6.705267417300000e+00   1.384843902700000e+00 -1.89720050e-01   5.37733919e-01  -4.57273314e-01
Si    1.416927260100000e+00   9.478887754200001e+00   4.058839730800000e+00 -2.02550734e-01  -5.38245574e-01  -3.17507422e-01
Si    4.059966848700000e+00   6.634835345800000e+00   4.145306258500000e+00 -2.82874745e-01   9.77060981e-01  -7.63481681e-01
Si    4.031636311700000e+00   9.465305870900000e+00   1.353305528700000e+00  2.57823230e-01  -6.47302031e-01   3.94281389e-01
Si    5.361774611700000e+00   5.385831197700000e+00  -7.707348701000000e-02  2.57570326e-03   5.36593330e-01   9.80029424e-01
Si    5.375351548800000e+00   8.077353176700001e+00   2.774973562800000e+00 -3.25110638e-01  -5.67090826e-01  -1.06692983e+00
Si    8.055289329800001e+00   5.391485913000000e+00   2.692490602500000e+00  7.30211298e-02   1.08259476e+00   6.72030499e-01
Si    8.098832828600001e+00   8.175124668200000e+00  -4.254319530700000e-02  5.06407836e-01  -6.03124800e-01   3.09077806e-01
Si    6.754262538200000e+00   6.765190853500000e+00   1.283159295400000e+00 -6.46164114e-01   9.49232059e-02   5.19748113e-01
Si    6.711928221000000e+00   9.438822406700000e+00   4.050007184500000e+00  6.44131229e-01  -3.39498511e-01   5.04296355e-01
Si    9.499530418899999e+00   6.798788232300000e+00   4.022737647700000e+00 -7.13068342e-01   9.44404310e-02  -5.59659802e-01
Si    9.471567897300000e+00   9.524545311200001e+00   1.320924223300000e+00 -1.26962966e+00  -7.31962690e-01   7.86273225e-01
Si    8.511333576900000e-02  -2.946777052900000e-02   5.398114896500000e+00 -1.49789589e+00   1.74817630e-01  -2.62142736e-01
Si    1.417808911600000e-02   2.728996236900000e+00   8.077090583300000e+00 -4.69822353e-02   3.82246016e-02  -1.29838936e-01
Si    2.714927529500000e+00  -6.394993323100000e-02   8.091223567500000e+00 -2.42546707e-01   9.99061341e-01   1.38039276e-01
Si    2.737628614000000e+00   2.719670929400000e+00   5.459744708800000e+00  9.87503601e-02  -3.46101739e-01  -1.22084356e+00
Si    1.372844326000000e+00   1.359588729400000e+00   6.666803327200000e+00  1.79945229e-01  -2.74886230e-01   1.87740480e+00
Si    1.279446041900000e+00   4.130790326400000e+00   9.499037160800000e+00  3.64549183e-01  -1.35032516e+00  -3.74932244e-01
Si    4.078113949100000e+00   1.329765415300000e+00   9.492715305799999e+00 -5.23705718e-01   4.15184182e-01  -1.06013286e+00
Si    3.985420662400000e+00   4.054804575100000e+00   6.815779336300000e+00  7.81947639e-01   6.28415036e-01   3.63678497e-02
Si    5.427498386900000e+00   3.383310091500000e-04   5.388779497200000e+00 -6.52280998e-01   3.23428323e-02   2.13088021e-01
Si    5.420137684400000e+00   2.698755419600000e+00   8.060920712200000e+00 -3.40079870e-02   2.36931906e-01   1.10480954e+00
Si    8.037385724400000e+00   2.356392098600000e-02   8.065744972499999e+00  8.53061137e-01   2.34589501e-01   4.63812710e-01
Si    8.112676912200000e+00   2.700430212300000e+00   5.364060277300000e+00  5.64677567e-01  -6.64522593e-02   2.81601724e-01
Si    6.766759839300000e+00   1.382843372800000e+00   6.700735607300000e+00 -2.90245660e-01  -1.80007449e-01   4.31983140e-02
Si    6.781967997500000e+00   4.099060475900000e+00   9.480889769699999e+00 -1.67067399e-01  -9.86684555e-01  -8.93889062e-01
Si    9.443068429700000e+00   1.392135394800000e+00   9.443593914299999e+00 -5.36073976e-01  -2.03055445e-01   2.65508706e-01
Si    9.434965015100000e+00   4.104166831000000e+00   6.732873431900000e+00  7.95610211e-01  -4.36545423e-01  -5.38336557e-01
Si    3.394603010500000e-02   5.478529812600000e+00   5.363533046500000e+00 -4.73411151e-01  -1.16755095e+00   1.99200412e-01
Si   -1.254003410800000e-03   8.114072536200000e+00   8.123844319700000e+00 -1.52588925e-01   2.67374875e-01  -8.70651515e-02
Si    2.591953741500000e+00   5.423563885300000e+00   8.153875098300000e+00  7.69352716e-01   1.99071036e-01  -5.77794472e-01
Si    2.699389525300000e+00   8.105159915600000e+00   5.426165656800000e+00 -4.44551134e-02  -9.04877247e-01  -2.86717859e-01
Si    1.298962524500000e+00   6.771606530300000e+00   6.766767535600000e+00  6.12545738e-01   3.59034678e-01  -1.05533070e-02
Si    1.355417246500000e+00   9.423014499000001e+00   9.488272123700000e+00 -3.90163435e-01   6.21166186e-01  -9.03713092e-02
Si    4.011901216900000e+00   6.765771056300000e+00   9.430979646999999e+00  1.95718525e-01  -1.01075806e-01  -2.56336897e-01
Si    4.046474879700000e+00   9.404733857800000e+00   6.733365100700000e+00  7.56174639e-01   5.31590378e-01   1.05699705e-01
Si    5.454781130300000e+00   5.310717524300000e+00   5.402513877800000e+00 -2.45069350e-01   8.46026285e-02   1.02419407e+00
Si    5.422136859600000e+00   8.064918545899999e+00   8.068634228500001e+00  1.11304521e-01  -4.04323117e-01  -3.11659006e-01
Si    8.163357088000000e+00   5.416924113800000e+00   8.112841691800000e+00 -1.40438030e-01   5.22844907e-02   5.29284839e-01
Si    8.096015259000000e+00   8.078560810100001e+00   5.428599184400000e+00  7.70387856e-01   8.97209076e-01  -1.04103785e+00
Si    6.865583024600000e+00   6.701280457700000e+00   6.712648444800000e+00 -1.67870397e+00  -1.52937344e-01   6.96750694e-01
Si    6.726444412100000e+00   9.449568353100000e+00   9.410894942500001e+00 -6.86114165e-02   7.23766466e-02  -1.90879867e-01
Si    9.506716215799999e+00   6.760501990800000e+00   9.479573083600000e+00 -9.55077924e-01   5.29531052e-01  -2.72662293e-01
Si    9.440326617400000e+00   9.474540216499999e+00   6.766989794400000e+00  2.52966820e-01  -1.45116879e-01  -1.85788862e-01
