64
Lattice="10.8 0 0 0 10.8 0 0 0 10.8 " PBC="1 1 1" Properties=species:S:1:pos:R:3:force:R:3 Energy="0"
Si    7.284272017000000e-03   5.312093944500000e-02  -1.361381996900000e-02 -2.84920377e-01  -4.76369801e-01   5.79113681e-01
Si   -3.416513115000000e-02   2.725849282400000e+00   2.676891459400000e+00  1.17701587e+00  -2.89682835e-01   7.62452152e-01
Si    2.648851157500000e+00  -3.792496519400000e-02   2.678920925400000e+00  1.61692207e+00   5.16414559e-02   5.05410157e-01
Si    2.645409865400000e+00   2.739538428500000e+00  -2.720149680000000e-03  8.24561398e-01  -9.01517447e-01   2.91928101e-02
Si    1.396286416200000e+00   1.312769221600000e+00   1.380511473400000e+00 -1.26952610e+00   1.21324480e+00  -5.25965215e-01
Si    1.400681085600000e+00   4.077112653700000e+00   4.107771818300000e+00 -1.00680120e+00  -7.02595065e-01  -1.01043472e+00
Si    4.037537786200000e+00   1.329660212300000e+00   4.077786082100000e+00  2.78821951e-01  -1.55858781e-01  -5.59935681e-01
Si    4.034561377700000e+00   4.036621004600000e+00   1.332043906600000e+00  2.22706635e-01  -6.48126160e-01   4.00377320e-01
Si    5.427938040200000e+00  -6.283718007800000e-03  -4.069395737300000e-02 -1.05495969e+00   1.17759603e-01   6.55025908e-01
Si    5.443487539200000e+00   2.699308862800000e+00   2.695276420400000e+00 -1.04972817e+00  -1.18947255e-01   1.84137889e-01
Si    8.111916637900000e+00  -4.180079541000000e-02   2.624810970700000e+00 -4.07336503e-01   9.39458898e-01   1.28239410e+00
Si    8.060180454399999e+00   2.706890617700000e+00   1.273715338000000e-03  2.15268039e-01  -1.28942620e-01  -4.12886352e-01
Si    6.705025810700000e+00   1.332526040100000e+00   1.319450855000000e+00  8.18579274e-01   2.45685055e-02   2.49694508e-01
Si    6.764787353800000e+00   4.068187458500000e+00   4.038904055300000e+00 -1.38749666e-01  -3.95567430e-01   1.49056308e-01
Si    9.483161742900000e+00   1.339428137900000e+00   4.082394073000000e+00 -1.14241319e+00   2.83192773e-01  -1.05647207e+00
Si    9.453288469100000e+00   4.040671268500000e+00   1.308675126000000e+00 -4.92591212e-01   3.58848591e-01   4.28638318e-01
Si    1.908899536400000e-04   5.427630218800000e+00   2.598907793100000e-02 -2.85676775e-01   8.86051728e-02  -4.35536424e-01
Si    7.216586651500000e-04   8.126797396000001e+00   2.728808275000000e+00 -4.76037950e-01  -2.71657623e-01  -3.77011044e-01
Si    2.713663677900000e+00   5.334820481600000e+00   2.690018366800000e+00 -1.46293989e-01   1.31758113e+00   3.27782548e-02
Si    2.661914734500000e+00   8.084810550100000e+00  -1.894235981400000e-02  2.67396525e-01   4.40609763e-01   1.16265651e-01
Si    1.345562654800000e+00   6.777609655300000e+00   1.343706834800000e+00  8.38895537e-02  -4.96113631e-01   8.30741509e-01
Si    1.383882750800000e+00   9.444291052300001e+00   4.057879959000000e+00 -3.35825027e-01  -2.57150005e-01   2.02363716e-01
Si    4.064830466500000e+00   6.735150486200000e+00   4.045584059100000e+00 -1.99754354e-01  -6.31815374e-01   2.74146816e-01
Si    4.037139115900000e+00   9.443774662499999e+00   1.298355551100000e+00  2.30094158e-01  -1.99775259e-01   5.35675080e-01
Si    5.343544742400000e+00   5.375806657100000e+00   1.575612624700000e-02  7.85826779e-01   2.78639171e-01  -2.93021027e-01
Si    5.392343092400000e+00   8.073033679600000e+00   2.723295810800000e+00 -1.13018843e-01   4.05073060e-01  -7.34610849e-01
Si    8.099771717599999e+00   5.392247975300000e+00   2.708620652700000e+00  2.69113273e-01  -6.45465693e-02  -5.16317351e-01
Si    8.096808639800001e+00   8.149023899099999e+00   2.190905190500000e-02 -9.78449574e-01  -9.07610534e-01  -6.54699850e-01
Si    6.725087456900000e+00   6.718958561600000e+00   1.353895899000000e+00  2.39310968e-01   3.93471097e-01  -8.21473336e-02
Si    6.760630797200000e+00   9.417327846199999e+00   4.043418061700000e+00  3.25776606e-01   1.94795806e-01  -4.80256059e-01
Si    9.437421707600000e+00   6.716608075700000e+00   4.074265441600000e+00  3.54569395e-01   6.36506526e-01  -1.64153221e-01
Si    9.418412900300000e+00   9.460644856700000e+00   1.305820181700000e+00  1.50228049e+00   1.15220915e-02   3.42351477e-01
Si    4.607325048000000e-02   3.352714375400000e-02   5.361781048800000e+00  1.34126288e-01  -4.40862185e-01   1.04366992e+00
Si    5.666797604700000e-02   2.747568791200000e+00   8.126605247700001e+00 -1.19431390e+00  -3.75779520e-01  -1.49578844e-01
Si    2.709544728200000e+00  -1.869142329400000e-02   8.075028214900000e+00 -3.40569371e-02   2.64680911e-01   6.28874015e-01
Si    2.682034454200000e+00   2.698000852300000e+00   5.419705649100000e+00  3.97147432e-01  -3.92121382e-01  -2.14780576e-01
Si    1.370548107900000e+00   1.380789504200000e+00   6.780486667300000e+00 -2.46270690e-01  -3.81342518e-01  -2.51783264e-01
Si    1.349756665700000e+00   4.102709724500000e+00   9.471431702100000e+00 -1.89701124e-01   3.96324685e-03   3.23089849e-02
Si    4.061947638800000e+00   1.336141142000000e+00   9.466545057799999e+00 -6.49891485e-01   3.49753151e-01  -1.56378174e-01
Si    4.025378731500000e+00   4.011083817800000e+00   6.729259502200000e+00  6.64424607e-01   3.02626963e-01   7.00835600e-01
Si    5.457063662200000e+00  -4.559683632900000e-02   5.397569820100000e+00 -6.99133988e-01   5.51162167e-01  -2.38857574e-01
Si    5.415166736400000e+00   2.687265588600000e+00   8.131930681900000e+00 -5.25690639e-02   7.29587066e-02  -7.39599612e-01
Si    8.089208317000001e+00  -6.272137015600001e-05   8.064022886000000e+00  7.14671875e-02  -2.03572331e-02   3.29285242e-01
Si    8.046037779100001e+00   2.693152359700000e+00   5.410602222900000e+00  1.13223574e+00   2.16566753e-01  -7.07541629e-01
Si    6.768405159400000e+00   1.349709848100000e+00   6.705517279600000e+00 -6.83989687e-01  -1.83987488e-01   9.56192646e-01
Si    6.757925362500000e+00   4.098645877500000e+00   9.428628341300000e+00 -4.12048757e-01  -4.40015599e-01   4.85043575e-01
Si    9.432410637000000e+00   1.337064412800000e+00   9.446816894099999e+00  9.58381172e-02   8.41180891e-01  -3.63387970e-01
Si    9.426671224100000e+00   4.047844628700000e+00   6.728367061900000e+00  5.33974208e-01   6.10552349e-02   3.74923570e-01
Si    4.029884106200000e-02   5.412657717400000e+00   5.409944535400000e+00 -4.89731577e-01   4.23194581e-02   3.57019162e-01
Si    1.386853172600000e-02   8.114026616900000e+00   8.128647381900000e+00 -5.10389795e-01   4.64211216e-03   5.28439280e-02
Si    2.699261835600000e+00   5.380319598900000e+00   8.105642715100000e+00  1.82120409e-01   5.33120442e-01  -2.22117286e-01
Si    2.722833976000000e+00   8.079179200400000e+00   5.411756550400000e+00  7.92963921e-02   3.01890468e-01  -2.24168702e-01
Si    1.356600010800000e+00   6.792068805400000e+00   6.768563269800000e+00  1.33999306e-01  -5.82163768e-01   1.66988771e-01
Si    1.324484367300000e+00   9.482063144200000e+00   9.483612247500000e+00  4.39032905e-01  -1.38717760e-01  -5.98048042e-01
Si    4.034541261500000e+00   6.742960707400000e+00   9.487250659700001e+00 -1.82631644e-02   1.50604075e-02  -7.37706335e-01
Si    4.065314493800000e+00   9.457624589600000e+00   6.735890767600000e+00  1.16215925e-01  -4.02525569e-01   7.09401324e-02
Si    5.428647941100000e+00   5.369863763000000e+00   5.417427222500000e+00 -5.83743111e-01   1.60635374e-01  -2.55824469e-01
Si    5.396348437300000e+00   8.095411135100001e+00   8.101833565800000e+00 -1.92994930e-01  -2.28074014e-01   8.88242696e-02
Si    8.100329958300000e+00   5.419590916900000e+00   8.096581541899999e+00  1.89386159e-01  -3.00828213e-01  -1.99091504e-01
Si    8.107076171399999e+00   8.121729645300000e+00   5.411787739800000e+00  9.68478251e-02  -5.90820918e-01   1.63965110e-01
Si    6.754678277100000e+00   6.721436054900000e+00   6.757472026000000e+00 -1.40280131e-02   7.25371634e-01  -1.07422948e-01
Si    6.703912452100000e+00   9.481670702100001e+00   9.446275708300000e+00  1.10300634e+00  -6.53828416e-01  -5.26563033e-01
Si    9.407938659399999e+00   6.747077555400000e+00   9.459723845299999e+00  6.06993655e-01   5.17701529e-01   1.91830354e-01
Si    9.480864474300001e+00   9.468956433300001e+00   6.747228001900000e+00  1.64963368e-01   5.74930867e-02  -2.07063781e-01
