64
Lattice="10.862 0 0 0 10.862 0 0 0 10.862 " PBC="1 1 1" Properties=species:S:1:pos:R:3:force:R:3 Energy="-272.93474"
Si    1.08267e+01   7.97744e-02   1.07931e+01 -8.38122e-02  -1.01188e+00   1.40124e-01
Si    2.70056e+00   2.73331e+00   3.70816e-02  1.44020e-01   4.68175e-01  -6.98291e-01
Si    1.08191e+01   2.66102e+00   2.68207e+00  5.81037e-01   3.60588e-01   8.20873e-01
Si    2.70797e+00  -2.30908e-02   2.63990e+00 -3.00180e-01   3.71213e-01  -1.69742e-01
Si    1.30926e+00   1.37857e+00   1.27979e+00  4.04548e-01  -4.86101e-01   8.58951e-01
Si    4.03672e+00   3.98938e+00   1.49095e+00  7.70950e-01   8.68960e-02  -3.14835e-01
Si    1.38559e+00   4.08567e+00   4.05334e+00 -1.67844e+00  -4.75802e-01   6.27351e-01
Si    4.04050e+00   1.27388e+00   4.05248e+00  1.99214e-01   7.04958e-01  -7.22138e-02
Si    5.39540e+00   1.08542e+01   1.07789e+01  7.26851e-01  -4.19405e-01   1.60965e-01
Si    8.05510e+00   2.73695e+00   1.08332e+01  1.36065e+00  -3.55413e-02  -4.94239e-01
Si    5.52277e+00   2.53698e+00   2.73043e+00 -8.81069e-01   5.44851e-01  -4.79309e-01
Si    8.13368e+00   1.07308e+01   2.68219e+00  2.27162e-03   1.13519e+00   4.75496e-01
C    6.81654e+00   1.24878e+00   1.25606e+00 -5.06130e-02  -3.45700e-02   7.88183e-01
Si    9.60218e+00   4.04356e+00   1.26773e+00 -9.83895e-01   1.92805e-01   2.42483e-02
Si    6.86005e+00   3.93052e+00   4.03251e+00 -4.14017e-01   1.24727e+00   5.63809e-01
Si    9.47334e+00   1.30548e+00   4.12536e+00  6.61349e-02  -2.95722e-01  -6.77608e-01
Si    1.08946e+01   5.52128e+00   1.08096e+01  2.50657e-01  -6.29471e-01   4.13536e-01
Si    2.72142e+00   8.14846e+00  -8.78511e-03 -1.70148e-01   3.87506e-01  -4.96395e-01
Si    4.60039e-02   8.19435e+00   2.70870e+00  8.19970e-01  -2.20943e-01   4.43667e-03
Si    2.68350e+00   5.39362e+00   2.78998e+00  3.84990e-01   7.17707e-01  -1.18278e+00
Si    1.43453e+00   6.82711e+00   1.33120e+00 -8.26807e-01  -5.01707e-01   9.15408e-01
Si    4.05888e+00   9.51548e+00   1.26700e+00  3.64009e-01  -3.98196e-01   1.03539e+00
Si    1.46121e+00   9.51066e+00   4.10288e+00 -4.04269e-01  -4.20959e-01  -1.01781e-01
Si    3.97215e+00   6.71101e+00   4.18957e+00  7.39539e-01   8.71830e-01  -1.25451e+00
Si    5.33091e+00   5.42671e+00   7.46268e-02  5.07274e-01  -4.22248e-01   3.81291e-01
Si    8.12350e+00   8.04479e+00   3.35525e-02  6.06744e-01   7.03672e-01  -1.60461e-01
C    5.33110e+00   8.11242e+00   2.78017e+00 -1.86075e-01  -2.23872e-01  -6.86304e-01
Si    8.26077e+00   5.34371e+00   2.72701e+00 -4.16551e-01   4.55277e-01  -3.35132e-01
Si    6.77064e+00   6.75153e+00   1.41112e+00 -1.72118e-01  -4.77551e-01   7.20942e-01
Si    9.54815e+00   9.48605e+00   1.33980e+00 -3.11156e-01  -1.98189e-01  -7.78887e-01
Si    6.69127e+00   9.49260e+00   4.07292e+00  6.78066e-01  -2.88830e-01   1.09493e-01
Si    9.60963e+00   6.80741e+00   4.05428e+00 -1.21891e+00   3.55913e-01  -4.10289e-01
Si    8.99076e-02   1.76721e-03   5.44713e+00 -3.97999e-01   3.76312e-01   2.54861e-01
Si    2.78683e+00   2.78429e+00   5.37914e+00 -2.59987e-01  -6.17992e-01   4.57030e-01
Si    1.09391e+01   2.80306e+00   8.08995e+00 -9.28126e-01  -9.13956e-03   6.22752e-01
Si    2.71213e+00  -2.77671e-02   8.25687e+00  6.20369e-01   1.14786e+00  -1.15007e+00
Si    1.43669e+00   1.44680e+00   6.80948e+00  2.96825e-01  -9.63993e-01  -3.41981e-01
Si    4.05723e+00   4.12161e+00   6.83398e+00  8.15924e-01   5.41160e-01  -1.11639e+00
C    1.39564e+00   4.16480e+00   9.48375e+00  8.97857e-02  -5.38431e-01   3.50679e-01
Si    4.12410e+00   1.43905e+00   9.51877e+00 -1.25620e+00  -5.56270e-01   3.99714e-02
Si    5.39125e+00   1.52331e-02   5.43797e+00  1.42932e-01  -3.68034e-01   5.25214e-01
Si    8.12534e+00   2.66437e+00   5.51414e+00  6.40437e-01   2.87127e-01  -1.09510e-01
Si    5.40650e+00   2.75661e+00   8.14691e+00  3.30790e-01   5.62209e-01   2.68007e-01
Si    8.12039e+00  -3.66164e-02   8.15420e+00 -2.94447e-01   4.59747e-01  -3.12627e-01
Si    6.71976e+00   1.36342e+00   6.84686e+00  3.71264e-01  -4.68614e-01  -2.49583e-01
Si    9.50029e+00   4.16106e+00   6.79535e+00  4.27436e-01  -3.01435e-01  -7.18992e-01
Si    6.73515e+00   4.16285e+00   9.51483e+00 -7.00869e-01  -9.27204e-01   3.94799e-01
Si    9.48677e+00   1.38654e+00   9.40914e+00 -1.15002e-01   8.99776e-01   2.49550e-01
Si    1.09339e+01   5.59315e+00   5.43292e+00  6.87287e-03  -1.87751e+00   3.85136e-01
Si    2.77051e+00   8.12323e+00   5.53051e+00 -3.52866e-01   1.18285e+00  -5.30329e-01
Si    1.07660e+01   8.26232e+00   8.15827e+00  9.18118e-02  -9.27155e-01  -8.93533e-02
Si    2.74686e+00   5.51398e+00   8.16614e+00 -8.81595e-01   5.01235e-02  -5.61036e-01
Si    1.33903e+00   6.94154e+00   6.83145e+00  5.88760e-02  -8.22024e-01   8.72735e-01
Si    4.10650e+00   9.50128e+00   6.85745e+00 -2.55910e-01   1.41844e-01   9.55885e-02
C    1.33515e+00   9.49908e+00   9.50890e+00 -3.75909e-01   1.91261e-01   6.54417e-01
Si    4.04553e+00   6.77261e+00   9.55830e+00  4.19110e-01   3.33744e-01  -1.46819e-01
Si    5.47696e+00   5.48531e+00   5.36139e+00 -1.71689e-02  -2.29356e+00   5.66615e-01
Si    8.15039e+00   8.14273e+00   5.38201e+00 -2.58485e-01  -5.99560e-02  -1.80152e-01
Si    5.41432e+00   8.05043e+00   8.14763e+00  4.48749e-01   8.07418e-01   4.75041e-01
Si    8.07678e+00   5.40561e+00   8.15434e+00  3.26309e-01   7.38909e-01  -6.94209e-01
Si    6.77313e+00   6.78626e+00   6.73769e+00  6.11452e-01   6.28382e-02   3.52643e-01
Si    9.43912e+00   9.54344e+00   6.73402e+00  5.86483e-01   1.43064e-01  -1.54736e-02
Si    6.81667e+00   9.44434e+00   9.51619e+00 -6.65198e-01  -3.42079e-01  -1.99862e-01
Si    9.46730e+00   6.73165e+00   9.45614e+00 -3.45292e-02   1.08427e+00   1.23627e-01
