64
Lattice="10.862 0 0 0 10.862 0 0 0 10.862 " PBC="1 1 1" Properties=species:S:1:pos:R:3:force:R:3 Energy="-271.90541"
Si    1.09525e+01  -4.98929e-02   1.07968e+01 -2.15149e-01   5.69561e-01   6.28222e-01
Si    2.68899e+00   2.76005e+00  -3.74038e-02  4.68377e-02  -3.21630e-01  -3.47267e-01
Si    1.08081e+01   2.72988e+00   2.75291e+00  1.59440e+00  -4.21446e-01  -4.53232e-01
Si    2.76153e+00  -2.12966e-02   2.76167e+00 -1.28720e+00  -5.02135e-01  -5.43645e-01
Si    1.45107e+00   1.33963e+00   1.30027e+00 -1.27155e+00   1.40406e-01   1.22742e+00
Si    4.01232e+00   4.11195e+00   1.30553e+00  1.25625e-02   4.92235e-01   9.69177e-01
Si    1.44543e+00   4.08527e+00   4.07305e+00 -3.13024e-01  -1.66876e-01  -5.86125e-01
Si    3.99659e+00   1.33255e+00   4.08763e+00  1.17306e+00   2.61415e-01   5.77256e-01
Si    5.32197e+00   1.07773e+01   1.08760e+01  2.45511e-01   1.99191e+00  -6.22585e-01
Si    8.16801e+00   2.63602e+00   1.08587e+01 -6.78224e-02   6.05486e-01   5.93940e-01
Si    5.28174e+00   2.74988e+00   2.78412e+00  7.24308e-01  -4.48579e-01  -1.31046e+00
Si    8.12877e+00   1.08684e+01   2.63917e+00  2.58715e-01  -9.54597e-02   7.07733e-01
Si    6.69032e+00   1.33719e+00   1.35210e+00 -3.03922e-01   4.78775e-01   9.99686e-02
C    9.57907e+00   4.08826e+00   1.32388e+00 -1.34883e+00  -1.11073e-01   4.16233e-02
Si    6.68576e+00   4.06128e+00   4.10053e+00  1.01041e+00   1.55332e-01  -2.60538e-01
Si    9.39511e+00   1.43764e+00   4.12317e+00  1.21710e+00  -1.62545e+00  -1.22838e+00
Si    1.08833e+01   5.47297e+00   1.08219e+01 -2.06222e-01   1.54928e-01   5.02602e-01
Si    2.74351e+00   8.16055e+00   9.57441e-02  4.70405e-01   2.62225e-01  -7.37678e-01
Si   -7.91120e-02   8.13366e+00   2.69110e+00  6.89088e-01   3.32543e-01   3.03510e-01
Si    2.73103e+00   5.58915e+00   2.73884e+00  4.01043e-01  -1.14041e+00  -8.59847e-02
Si    1.33026e+00   6.85443e+00   1.36077e+00 -8.41691e-02  -4.10455e-01   7.26161e-02
Si    4.15903e+00   9.49383e+00   1.44113e+00 -1.04582e+00  -8.95578e-01   3.91835e-01
Si    1.21692e+00   9.53864e+00   4.08984e+00  1.57407e+00  -5.84146e-01  -6.32848e-01
Si    4.19332e+00   6.83255e+00   4.14776e+00 -8.91863e-01  -7.00094e-03  -8.81729e-01
C    5.39389e+00   5.44379e+00  -3.27624e-02  1.60830e-01   2.82252e-01   3.67814e-02
Si    8.11789e+00   8.12116e+00  -9.32650e-02  1.16133e+00  -1.48338e-01   1.38381e+00
Si    5.54455e+00   8.09553e+00   2.71378e+00 -4.49528e-01   1.82567e-01   3.16975e-02
Si    8.08692e+00   5.42121e+00   2.67566e+00  8.68316e-01  -8.74043e-01   5.57068e-01
Si    6.83605e+00   6.75914e+00   1.30667e+00 -6.86763e-01   1.74141e-01  -3.86506e-01
Si    9.55771e+00   9.49074e+00   1.29965e+00 -1.14766e+00   1.35632e-01  -5.09756e-01
Si    6.80800e+00   9.47894e+00   4.05948e+00  7.80411e-01   4.91550e-01  -3.52024e-01
Si    9.52263e+00   6.74888e+00   4.04014e+00 -4.61323e-01  -3.70798e-01   4.88450e-01
Si   -1.32092e-02   5.12452e-02   5.44845e+00 -6.61698e-01   7.05234e-01   4.31375e-01
Si    2.76450e+00   2.72171e+00   5.44747e+00 -6.66892e-01   2.29339e-01   9.45891e-01
Si    1.08131e+01   2.70948e+00   8.17787e+00  6.97478e-01   3.72771e-02   8.06194e-02
C    2.66040e+00  -9.84176e-02   8.03540e+00  7.57681e-01   6.04732e-01   5.10868e-01
Si    1.36883e+00   1.38959e+00   6.87325e+00 -4.49671e-01   7.60087e-02  -1.45481e+00
Si    4.04655e+00   4.11857e+00   6.89522e+00  3.92248e-01  -4.40638e-01  -9.24817e-01
Si    1.30525e+00   4.08767e+00   9.51082e+00  5.52357e-01   2.85963e-01  -5.49818e-01
Si    3.91835e+00   1.32270e+00   9.40953e+00  1.19320e+00  -4.72340e-01   8.31734e-01
Si    5.52239e+00   4.94536e-02   5.36558e+00 -4.61731e-01   4.50409e-02   1.51960e-01
Si    8.14803e+00   2.73274e+00   5.43025e+00 -9.57001e-01   9.49880e-01   8.97002e-01
Si    5.40923e+00   2.64154e+00   8.13228e+00  4.38206e-01   6.78143e-01   6.72666e-01
Si    8.16606e+00  -5.60680e-02   8.19606e+00 -2.62165e-02  -2.86278e-01  -2.05248e-01
Si    6.86776e+00   1.32610e+00   6.80786e+00 -4.11685e-01   2.07544e-01  -6.69862e-02
Si    9.55075e+00   4.05562e+00   6.79982e+00 -4.13245e-01   2.79215e-01  -4.85183e-01
Si    6.80204e+00   4.06564e+00   9.56833e+00 -4.40531e-01  -8.86029e-01  -8.40385e-01
C    9.53927e+00   1.31136e+00   9.50187e+00 -2.02205e-01  -2.50724e-01   2.02673e-01
Si    1.09528e+01   5.38850e+00   5.41619e+00 -7.55902e-01   5.49303e-01   2.95996e-01
Si    2.72166e+00   8.15935e+00   5.39171e+00 -1.14640e-01   6.58116e-01   2.14432e-01
Si    1.08752e+01   8.15082e+00   8.18997e+00  3.80592e-01  -3.12605e-01  -6.01778e-01
Si    2.71249e+00   5.51401e+00   8.19299e+00 -7.27038e-01  -1.07554e+00  -9.25122e-02
Si    1.39584e+00   6.79692e+00   6.79459e+00 -4.02824e-01   3.97103e-01  -1.51906e-01
Si    4.14523e+00   9.57432e+00   6.68617e+00 -4.70704e-01  -7.45620e-01   1.89385e-01
Si    1.44763e+00   9.47927e+00   9.50537e+00 -4.74240e-01  -6.55096e-01  -2.62467e-02
Si    4.04098e+00   6.84285e+00   9.46218e+00  5.39990e-01   3.99775e-01   1.16459e+00
Si    5.42739e+00   5.42696e+00   5.48009e+00 -3.02443e-01  -4.11208e-01   4.94458e-01
Si    8.18807e+00   8.16298e+00   5.41280e+00 -6.12663e-01  -1.25002e+00   3.61329e-01
Si    5.41104e+00   8.22280e+00   8.15394e+00  3.80973e-01  -4.34140e-01  -3.19562e-01
Si    8.16550e+00   5.37687e+00   8.17517e+00 -3.89389e-01  -5.54097e-02  -5.17494e-01
Si    6.75793e+00   6.73285e+00   6.83488e+00  9.49901e-01   1.22128e+00  -8.47423e-02
Si    9.54276e+00   9.46205e+00   6.77121e+00 -1.28692e-01   7.06639e-01   5.87245e-01
Si    6.75393e+00   9.50020e+00   9.61746e+00 -9.93532e-02   2.95760e-01  -1.77393e+00
Si    9.48810e+00   6.75804e+00   9.45127e+00  2.78591e-01   3.61759e-01   3.88233e-01
