64
Lattice="10.862 0 0 0 10.862 0 0 0 10.862 " PBC="1 1 1" Properties=species:S:1:pos:R:3:force:R:3 Energy="-272.76555"
Si    1.09150e+01  -4.71304e-02   1.09770e+01  9.14324e-01   1.65542e+00  -1.37875e+00
Si    2.75139e+00   2.67158e+00  -3.12994e-02  5.93413e-01  -7.66154e-01   4.84912e-01
Si    1.08638e+01   2.75833e+00   2.68472e+00 -1.34754e-01  -3.73278e-01   4.07265e-01
Si    2.75921e+00  -2.37320e-02   2.79118e+00 -4.01794e-01  -1.18993e-02  -3.01467e-01
Si    1.40728e+00   1.38312e+00   1.45210e+00  2.19163e-01  -4.78891e-01  -7.59782e-01
Si    4.09332e+00   4.15703e+00   1.20243e+00 -7.13595e-01  -3.75687e-01   9.49379e-01
Si    1.33628e+00   4.06387e+00   4.02969e+00  1.26005e+00   3.48219e-01  -2.85763e-01
Si    4.09185e+00   1.41446e+00   4.07971e+00 -5.50472e-02  -5.41407e-01   2.24904e-01
Si    5.42247e+00   1.09604e+01   1.09412e+01 -1.48783e-01  -7.19766e-01  -3.54964e-01
Si    8.16924e+00   2.73147e+00   1.09545e+01 -2.04048e-01  -7.20669e-01  -7.58933e-01
C    5.33043e+00   2.82025e+00   2.70426e+00  1.03776e+00  -1.75863e-01  -4.47945e-01
Si    8.17666e+00   1.09144e+01   2.72372e+00 -1.25054e-01  -5.77406e-02   1.92145e-01
Si    6.77883e+00   1.39341e+00   1.39694e+00 -1.61947e-01   8.09798e-01   7.77054e-01
Si    9.45688e+00   4.08678e+00   1.41947e+00 -5.22214e-02   9.92804e-01   1.32538e-01
Si    6.69150e+00   4.17034e+00   4.09199e+00  1.35166e-01  -1.58489e-01  -4.81711e-02
Si    9.52279e+00   1.41516e+00   4.05872e+00 -1.74804e-01  -2.66603e-02   6.81627e-02
Si    1.08270e+01   5.38346e+00   1.08695e+01  3.99268e-01   7.13790e-02   1.39635e-01
Si    2.70990e+00   8.07262e+00  -4.48732e-03  1.95947e-01   6.64115e-01   8.60877e-01
Si   -5.79122e-02   8.08919e+00   2.73136e+00 -3.08063e-01   5.63516e-01  -4.40337e-01
Si    2.74889e+00   5.53241e+00   2.65524e+00  1.35508e-02  -1.60782e+00   5.15251e-01
Si    1.29677e+00   6.75053e+00   1.39866e+00  6.18264e-02   4.25123e-01  -1.04413e+00
Si    4.12524e+00   9.51730e+00   1.38838e+00 -1.28203e+00  -3.49512e-03  -7.57557e-01
C    1.27726e+00   9.43627e+00   4.02547e+00  7.54576e-01   5.14424e-01   2.02818e-01
Si    4.11506e+00   6.85346e+00   4.01700e+00 -4.81600e-01  -7.12180e-01   6.33369e-01
Si    5.43808e+00   5.35936e+00  -2.22102e-01  5.52936e-01   1.75787e+00   1.14858e+00
Si    8.22277e+00   8.29861e+00  -1.14816e-01 -5.43454e-01  -6.03309e-01   1.44880e+00
Si    5.42789e+00   8.18764e+00   2.69626e+00  1.94792e+00   3.09990e-01   4.70104e-01
Si    8.06727e+00   5.54896e+00   2.74886e+00  6.79589e-01  -6.04359e-01   5.02328e-02
Si    6.80053e+00   6.82225e+00   1.25556e+00 -4.24191e-01   4.57260e-01  -7.61467e-01
Si    9.57885e+00   9.61054e+00   1.35664e+00 -1.50283e+00  -1.93052e+00   1.12757e+00
Si    6.85938e+00   9.58784e+00   4.18607e+00 -6.65507e-01  -9.92023e-01  -1.66371e+00
Si    9.47464e+00   6.84410e+00   4.18582e+00  1.38909e-01  -1.33450e+00  -7.08867e-01
C   -4.96126e-02  -5.68347e-02   5.37437e+00 -5.83185e-02  -3.79384e-03   4.40899e-01
Si    2.69761e+00   2.70185e+00   5.42098e+00 -7.51916e-01  -4.09070e-01   4.11146e-01
Si    1.07866e+01   2.67620e+00   8.22790e+00  6.32798e-01  -4.55931e-01  -7.61923e-01
Si    2.71044e+00  -7.40296e-02   8.13545e+00 -8.59506e-02  -5.00941e-01  -1.00732e-01
Si    1.29372e+00   1.22417e+00   6.80948e+00  1.66938e-01   1.54582e+00  -1.81899e-01
Si    4.08404e+00   4.05048e+00   6.74739e+00 -2.63884e-01  -9.28703e-01   1.57615e+00
Si    1.38809e+00   3.96574e+00   9.57317e+00 -1.16601e+00   8.08705e-01  -6.73422e-01
Si    4.12635e+00   1.28301e+00   9.43016e+00 -3.75352e-01   9.83228e-01   4.06163e-01
Si    5.44970e+00   2.80696e-02   5.44973e+00 -5.56365e-01   3.31892e-01  -5.85168e-01
Si    8.10664e+00   2.76606e+00   5.38203e+00  1.78400e-01  -6.17866e-02   8.25929e-02
Si    5.56616e+00   2.68989e+00   8.16204e+00 -1.41484e+00  -5.41318e-01  -1.36146e+00
C    8.14792e+00  -7.43408e-02   8.13696e+00  3.48593e-01   7.48000e-01   2.65424e-01
Si    6.85715e+00   1.30982e+00   6.73656e+00  1.50430e-02   5.85150e-01   7.28763e-01
Si    9.48138e+00   4.07212e+00   6.78610e+00  8.68785e-02  -1.18352e+00   2.13952e-01
Si    6.86900e+00   3.99285e+00   9.47801e+00  8.35997e-01   7.34180e-01  -6.01503e-02
Si    9.47922e+00   1.27794e+00   9.58977e+00  5.82398e-02   4.38826e-02   1.50156e-01
Si    1.08398e+01   5.28873e+00   5.41990e+00  2.03987e-01   1.94919e+00   1.86699e-01
Si    2.65666e+00   8.09059e+00   5.34431e+00 -2.05135e-01  -2.83742e-01   3.38662e-01
Si    1.09253e+01   8.07450e+00   8.08210e+00  2.60276e-01   6.13723e-01   8.77056e-01
Si    2.68314e+00   5.33175e+00   8.17094e+00  6.95943e-01   2.23586e-01  -1.17900e-01
Si    1.38007e+00   6.68357e+00   6.80911e+00 -1.86388e-01  -2.71687e-01  -1.25756e+00
Si    4.00923e+00   9.48367e+00   6.61405e+00  3.91188e-01   1.76131e-01   1.60683e+00
Si    1.33174e+00   9.44351e+00   9.55757e+00  4.08365e-01   8.14186e-02  -6.12680e-01
Si    4.05763e+00   6.83912e+00   9.40343e+00  5.50965e-02  -6.98907e-01   6.92685e-02
Si    5.34094e+00   5.46748e+00   5.52245e+00  1.12656e+00   9.90796e-01  -8.91051e-01
Si    8.11279e+00   8.12829e+00   5.50141e+00  1.49808e-01   3.99405e-01   5.68516e-01
Si    5.42789e+00   8.29365e+00   8.15641e+00 -4.69186e-01  -8.27894e-01  -7.85244e-01
Si    8.21457e+00   5.42643e+00   8.12868e+00 -8.89592e-02   3.64278e-01   1.29597e+00
Si    6.80311e+00   6.78390e+00   6.90362e+00 -8.91864e-01   3.88747e-01  -6.08133e-01
Si    9.54695e+00   9.42888e+00   6.82844e+00 -4.60746e-01   3.67766e-01  -6.56561e-01
Si    6.71530e+00   9.62586e+00   9.55219e+00  5.70660e-01  -3.00357e-01  -2.80749e-01
Si    9.59093e+00   6.86983e+00   9.50600e+00 -7.34533e-01  -1.24347e+00  -4.05379e-01
