64
Lattice="10.862 0 0 0 10.862 0 0 0 10.862 " PBC="1 1 1" Properties=species:S:1:pos:R:3:force:R:3 Energy="-272.26333"
Si    1.07139e+01   9.90403e-02   1.08352e+01  1.23966e+00  -3.93782e-01   7.67946e-02
Si    2.70355e+00   2.73567e+00   3.49034e-02  3.60624e-01  -1.19242e+00   5.38405e-03
Si    1.08174e+01   2.71842e+00   2.67209e+00 -6.09648e-01   7.11756e-02   1.08546e+00
Si    2.79387e+00  -5.44993e-02   2.69552e+00 -5.39556e-01   1.31465e+00  -2.33709e-01
C    1.28292e+00   1.34923e+00   1.41603e+00  1.15084e+00  -3.33439e-01  -1.04062e+00
Si    4.08054e+00   4.00388e+00   1.43120e+00  2.74849e-01   1.03357e-01  -5.32529e-01
Si    1.24479e+00   4.06067e+00   4.14077e+00  8.01516e-01  -2.89507e-01  -6.82570e-01
Si    4.14090e+00   1.32186e+00   4.06102e+00 -4.84968e-01   2.91052e-01  -2.01798e-01
Si    5.49653e+00   1.08939e+01   1.08796e+01  1.11989e-01  -1.51374e+00   1.95910e-01
Si    8.21984e+00   2.73053e+00   1.08679e+01 -9.01503e-01  -4.38651e-01  -1.36145e+00
Si    5.52062e+00   2.67357e+00   2.70120e+00 -1.72215e-01  -7.56100e-01  -1.35945e-01
Si    8.18006e+00   1.07340e+01   2.79235e+00 -4.15135e-01   1.26789e+00  -6.90962e-01
Si    6.91991e+00   1.32848e+00   1.34063e+00 -2.32919e-01  -2.27168e-01   7.56058e-01
Si    9.46041e+00   4.09440e+00   1.31648e+00  9.09477e-01   8.39784e-01   6.80536e-01
Si    6.89177e+00   3.92677e+00   4.05374e+00 -1.08453e+00   1.44000e+00   3.49667e-01
Si    9.52357e+00   1.25820e+00   4.08700e+00 -2.48801e-01   1.40367e+00  -5.83958e-01
Si    1.08425e+01   5.49240e+00   1.08109e+01  3.41716e-01  -1.60673e+00   7.20942e-01
Si    2.61059e+00   8.15586e+00  -3.93018e-02  3.52709e-01   6.62905e-02   6.91055e-01
C    1.17315e-01   8.16329e+00   2.68681e+00 -9.27408e-01  -1.03463e-01  -3.34099e-01
Si    2.68422e+00   5.31924e+00   2.71667e+00 -2.39466e-01   7.33073e-01   6.31672e-01
Si    1.35602e+00   6.69570e+00   1.32608e+00  3.93731e-01   7.66252e-01   3.81455e-01
Si    4.05548e+00   9.43465e+00   1.36176e+00 -5.95804e-02   1.06352e+00  -1.79730e+00
Si    1.41755e+00   9.55309e+00   4.00337e+00 -8.71434e-02  -4.83690e-01   1.35509e+00
Si    4.05946e+00   6.76982e+00   4.03471e+00 -4.97699e-01   3.55747e-01   2.58772e-01
Si    5.42099e+00   5.38697e+00   6.70870e-02  3.32539e-01   2.33187e-01  -2.51281e-02
Si    8.13856e+00   8.11772e+00   1.03603e-01 -2.46801e-01   6.66472e-01  -4.24105e-01
Si    5.38020e+00   8.17785e+00   2.65799e+00  3.60153e-01  -4.57709e-01   1.70610e+00
Si    8.14458e+00   5.40109e+00   2.81696e+00  6.15528e-01   7.29907e-01  -1.01158e+00
Si    6.75519e+00   6.80097e+00   1.45213e+00  4.09693e-01  -9.95011e-01  -3.89615e-01
Si    9.52537e+00   9.53319e+00   1.35292e+00  1.01039e-01  -9.78628e-01   4.29041e-01
C    6.68854e+00   9.55663e+00   4.10526e+00  2.85046e-01  -1.33547e+00  -5.32589e-01
Si    9.56974e+00   6.85933e+00   4.08425e+00 -8.29362e-01  -1.66644e-01  -7.60703e-01
Si    5.14505e-02   4.61189e-02   5.39665e+00 -1.88658e-01  -1.31997e+00   6.58548e-01
Si    2.75331e+00   2.70532e+00   5.40305e+00 -1.12192e+00  -6.98910e-01  -5.69506e-01
Si    1.08821e+01   2.78467e+00   8.14955e+00 -5.92444e-02  -2.00066e-01  -4.23780e-01
Si    2.71319e+00   4.70380e-02   8.23821e+00 -2.02386e-01  -1.84764e-01  -7.29468e-01
Si    1.32579e+00   1.37772e+00   6.79109e+00  1.12795e+00   3.73020e-01   3.47104e-01
Si    4.06504e+00   4.08921e+00   6.61631e+00  7.30083e-01   1.88165e-01   1.72344e+00
Si    1.40856e+00   4.09546e+00   9.51824e+00 -7.96894e-01  -1.38665e-01   1.54871e-01
Si    4.18657e+00   1.34411e+00   9.53149e+00 -1.14491e+00   1.35507e+00  -4.32105e-02
Si    5.39454e+00  -9.39657e-03   5.47550e+00 -2.39273e-01   2.66005e-01   3.96633e-01
Si    8.18924e+00   2.68906e+00   5.42655e+00  4.15795e-01  -8.17719e-01   2.19121e-01
C    5.43711e+00   2.82736e+00   8.13231e+00 -6.43332e-01  -9.46989e-01  -7.07093e-01
Si    8.12932e+00   5.52998e-03   8.14121e+00 -9.30387e-01   6.57160e-01  -8.59917e-01
Si    6.73687e+00   1.42585e+00   6.74618e+00  5.52932e-01  -6.15879e-01   8.51306e-01
Si    9.48580e+00   4.08279e+00   6.77150e+00  4.03795e-01  -3.72345e-01  -3.42414e-02
Si    6.80550e+00   4.07254e+00   9.47598e+00  6.75416e-01   8.35182e-01   6.74438e-01
Si    9.47085e+00   1.37917e+00   9.36416e+00  1.15571e-01   8.79775e-01   1.24097e+00
Si    1.07662e+01   5.46196e+00   5.43983e+00  8.74740e-01  -5.23996e-02   3.38309e-01
Si    2.69695e+00   8.19571e+00   5.49947e+00 -2.98280e-01  -1.05557e+00  -9.50921e-01
Si    1.08010e+01   8.17442e+00   8.10935e+00 -1.99966e-01   2.17141e-01   1.21285e+00
Si    2.75298e+00   5.33848e+00   8.13410e+00  7.42939e-02   1.85821e+00  -2.35854e-01
Si    1.26006e+00   6.78900e+00   6.83060e+00  1.33193e+00  -4.51381e-01  -2.85774e-01
Si    4.04074e+00   9.49434e+00   6.85527e+00  3.61574e-01   4.62452e-01   3.59630e-01
Si    1.24901e+00   9.56684e+00   9.51067e+00  1.03131e-01  -3.80664e-02  -2.51530e-02
Si    4.07111e+00   6.80869e+00   9.61145e+00  1.05571e-01  -6.76085e-01  -1.59345e+00
Si    5.48226e+00   5.40775e+00   5.33113e+00  2.70953e-01  -1.09178e-01  -1.86031e-01
Si    8.07452e+00   8.12781e+00   5.36432e+00  9.44009e-01   1.29522e+00   7.14131e-01
Si    5.48405e+00   8.12072e+00   8.13904e+00 -7.79147e-01  -1.66071e-01   4.17442e-01
Si    8.21145e+00   5.44345e+00   8.08473e+00 -7.79974e-01   6.84020e-01   1.34288e+00
Si    6.80151e+00   6.78504e+00   6.73065e+00 -1.72168e-01  -6.10281e-01   2.63828e-01
Si    9.46641e+00   9.57027e+00   6.81693e+00  1.02353e-01  -7.37957e-01  -1.80161e+00
Si    6.85106e+00   9.47507e+00   9.47284e+00 -4.59286e-01   6.13289e-02   1.07201e+00
Si    9.50767e+00   6.84304e+00   9.61532e+00 -6.38666e-01  -1.43398e-02  -2.12679e+00
