64
Lattice="10.862 0 0 0 10.862 0 0 0 10.862 " PBC="1 1 1" Properties=species:S:1:pos:R:3:force:R:3 Energy="-272.79246"
Si    1.09522e+01  -1.13917e-01   1.09128e+01 -8.86911e-01   4.91612e-01   1.36137e-01
Si    2.71357e+00   2.70627e+00  -2.80534e-02 -4.47504e-01   6.86337e-01   3.99121e-01
Si    1.09748e+01   2.76326e+00   2.76800e+00 -8.22659e-01  -4.27197e-01  -1.36483e+00
Si    2.68504e+00   5.62361e-02   2.75492e+00  6.69036e-01  -9.39294e-01   6.01180e-01
Si    1.42626e+00   1.29437e+00   1.35777e+00 -9.10566e-01   1.31023e+00  -4.38776e-02
Si    4.09211e+00   4.13078e+00   1.30181e+00 -3.67272e-01   6.25830e-02  -4.70843e-01
Si    1.41330e+00   4.12500e+00   4.08205e+00  2.80052e-01  -1.01229e-01   6.34689e-03
C    4.09205e+00   1.42243e+00   4.06812e+00 -2.94623e-01  -5.51073e-01   3.09925e-01
Si    5.44069e+00   1.08291e+01   1.09372e+01 -5.07258e-01   1.13730e+00  -5.55774e-01
Si    8.13473e+00   2.67103e+00   1.08444e+01 -4.82942e-01   8.53721e-01   1.54523e+00
Si    5.35791e+00   2.82604e+00   2.72807e+00  1.98421e-01   4.78246e-01   6.75746e-01
Si    8.09244e+00   1.10228e+01   2.69450e+00  6.65298e-01  -1.49020e+00   1.75296e-01
Si    6.68677e+00   1.46434e+00   1.47503e+00  3.95256e-01  -3.54429e-01  -1.91748e+00
Si    9.48192e+00   4.08816e+00   1.38638e+00  2.85425e-01  -1.09013e+00   6.45486e-02
Si    6.69172e+00   4.21048e+00   4.12147e+00  1.05761e+00  -1.49303e+00  -6.48910e-01
Si    9.48445e+00   1.44481e+00   4.00526e+00  3.30949e-01  -2.57758e-01   1.28391e+00
Si    1.08808e+01   5.38603e+00   1.09465e+01 -7.27153e-01   6.81245e-01  -1.05344e+00
Si    2.76099e+00   8.15096e+00   6.41213e-02 -2.40026e-01  -6.44165e-01  -7.29761e-01
Si   -4.49508e-02   8.10360e+00   2.70573e+00 -3.86895e-01   5.65071e-02   5.64772e-01
Si    2.71781e+00   5.47918e+00   2.64120e+00  2.25855e-01  -3.41812e-01   5.36100e-01
Si    1.34191e+00   6.80384e+00   1.35543e+00  8.32039e-02   1.57430e-01  -7.82323e-02
Si    4.01380e+00   9.54274e+00   1.39141e+00  9.00999e-01  -9.00898e-02   7.18345e-01
Si    1.33763e+00   9.45926e+00   4.07251e+00 -8.23349e-01   8.29231e-01  -4.19149e-01
Si    4.08782e+00   6.81282e+00   3.99101e+00  4.08128e-01  -6.45255e-01   9.32428e-01
Si    5.51109e+00   5.46993e+00  -5.49089e-02 -7.97152e-01  -3.78509e-01  -4.53669e-01
Si    8.21840e+00   8.21090e+00  -7.04379e-02 -1.05372e+00  -6.26339e-01  -2.13704e-01
Si    5.47513e+00   8.20949e+00   2.73789e+00 -2.35487e-01  -3.30573e-01  -9.63133e-01
Si    8.10748e+00   5.44284e+00   2.66960e+00 -6.67414e-01  -3.30373e-03   3.28560e-01
Si    6.81112e+00   6.83856e+00   1.30577e+00  2.29494e-01   5.87261e-01   2.94481e-02
C    9.43145e+00   9.50181e+00   1.39808e+00  8.01188e-01   7.44940e-01   5.43942e-02
Si    6.90329e+00   9.48920e+00   4.03744e+00 -5.67369e-01   9.34953e-01   5.95258e-01
Si    9.40241e+00   6.72028e+00   4.07410e+00  1.45473e+00   4.10978e-01   5.91894e-01
Si   -1.13697e-01  -6.17832e-02   5.43972e+00  9.44494e-01   7.69724e-01  -8.76408e-01
Si    2.67383e+00   2.68977e+00   5.44108e+00  9.62518e-01   7.43835e-01   1.13050e-01
Si    1.07835e+01   2.64926e+00   8.19201e+00  7.74723e-01  -3.20657e-02  -4.55607e-01
Si    2.74089e+00   1.68913e-02   8.05140e+00 -4.76809e-01  -5.99520e-01   1.01013e+00
Si    1.32599e+00   1.33926e+00   6.73827e+00 -9.17344e-01  -2.96292e-01   5.23617e-01
Si    4.12193e+00   3.99601e+00   6.87138e+00 -1.49341e+00   1.74491e-01  -6.10304e-01
Si    1.25516e+00   4.05166e+00   9.50313e+00  1.11504e+00  -3.23401e-02  -8.99345e-02
Si    4.02017e+00   1.36542e+00   9.52064e+00  1.13171e+00  -1.08455e+00  -3.04256e-01
Si    5.49643e+00   1.13207e-02   5.38517e+00 -1.41400e-01  -2.54669e-01  -3.26796e-01
Si    8.10463e+00   2.75375e+00   5.43695e+00 -1.56684e-01   1.57787e-01  -7.93380e-01
Si    5.45253e+00   2.60048e+00   8.11158e+00  1.59671e-02   4.62089e-01   9.98766e-01
Si    8.16822e+00   1.24620e-01   8.12303e+00  7.83138e-01  -1.73394e+00   1.04300e+00
Si    6.82589e+00   1.33160e+00   6.77269e+00 -3.94737e-01   4.95598e-01  -7.58738e-01
Si    9.50221e+00   4.01038e+00   6.79360e+00 -5.22654e-01   4.59344e-01   7.43203e-01
Si    6.81201e+00   4.00395e+00   9.45020e+00 -1.60678e-01   4.06741e-01   1.52923e-01
C    9.53767e+00   1.34814e+00   9.65777e+00  2.06264e-01  -1.13913e+00  -1.11401e+00
Si    1.08510e+01   5.32979e+00   5.45882e+00 -4.00341e-01   9.54829e-01  -8.03761e-01
Si    2.70262e+00   8.12470e+00   5.32599e+00  6.23943e-01  -1.14071e-01   1.07162e+00
Si    1.09512e+01   8.02083e+00   8.19781e+00 -2.46440e-02   7.77193e-01  -1.21891e+00
Si    2.66706e+00   5.43304e+00   8.12140e+00  5.97247e-01  -1.29334e+00   5.98796e-01
Si    1.41198e+00   6.69157e+00   6.70561e+00 -7.32720e-01   1.03507e+00   1.07016e-01
Si    4.10038e+00   9.51297e+00   6.71343e+00 -2.38859e-01  -3.20347e-01  -2.89046e-01
Si    1.42580e+00   9.43148e+00   9.53006e+00  2.58860e-01   5.37811e-01  -8.43274e-01
Si    4.04210e+00   6.79472e+00   9.44294e+00  2.73587e-01  -7.71352e-02   9.14815e-01
Si    5.38655e+00   5.39708e+00   5.53343e+00 -2.93297e-01   1.75338e+00  -4.02250e-01
Si    8.17539e+00   8.16385e+00   5.49324e+00 -2.29796e-01  -6.46831e-01  -6.66375e-01
C    5.40084e+00   8.15777e+00   8.13719e+00  3.17583e-01   1.93004e-01  -3.98876e-01
Si    8.17022e+00   5.45759e+00   8.18056e+00 -1.41751e-01  -1.21045e+00  -8.81866e-01
Si    6.82426e+00   6.80057e+00   6.82825e+00 -6.81288e-01  -9.73793e-02  -7.48755e-02
Si    9.52158e+00   9.44691e+00   6.84158e+00  1.01825e-01   2.42927e-01   1.07232e+00
Si    6.76345e+00   9.55718e+00   9.44836e+00  6.16177e-01   5.43343e-02   3.10791e-01
Si    9.53122e+00   6.74368e+00   9.46808e+00  5.15991e-01   5.57243e-02   1.61279e+00
