64
Lattice="10.862 0 0 0 10.862 0 0 0 10.862 " PBC="1 1 1" Properties=species:S:1:pos:R:3:force:R:3 Energy="-272.20002"
Si    1.08486e+01  -2.10950e-02   1.09030e+01 -3.51956e-01  -5.19047e-01  -5.40024e-02
Si    2.75252e+00   2.67684e+00  -4.24584e-02 -4.44755e-02   1.20433e+00   1.05955e+00
Si    1.08717e+01   2.63797e+00   2.71227e+00 -6.91899e-01   1.57123e+00   1.97412e-01
Si    2.69280e+00   4.80427e-02   2.63424e+00  1.09449e+00  -3.29360e-01   7.41999e-01
Si    1.33080e+00   1.38146e+00   1.34287e+00  3.44936e-01  -3.16515e-01  -6.99658e-01
Si    4.17238e+00   4.09106e+00   1.43110e+00 -2.84720e-01  -7.79701e-01  -1.32727e+00
Si    1.42368e+00   4.04505e+00   4.00397e+00 -1.50143e+00   3.37508e-01   1.07697e+00
Si    4.11389e+00   1.38159e+00   4.09693e+00 -1.36538e+00  -5.76542e-02  -1.14544e+00
Si    5.45753e+00   1.08736e+01   1.08206e+01  8.49616e-01  -4.70208e-01   8.21326e-01
Si    8.10410e+00   2.81772e+00   1.07982e+01  7.76903e-01  -5.39415e-01   1.43409e+00
C    5.53697e+00   2.67394e+00   2.76390e+00 -6.14857e-01   1.55419e+00   6.67150e-01
Si    8.12777e+00   1.08445e+01   2.81012e+00  1.06395e-01   2.56423e-01  -5.35583e-01
Si    6.79741e+00   1.39451e+00   1.40252e+00  9.14317e-01  -8.27186e-01  -1.16372e+00
Si    9.48406e+00   4.17188e+00   1.40416e+00  3.39250e-01  -1.63466e+00  -5.29004e-01
Si    6.85114e+00   4.19578e+00   4.08751e+00  2.46514e-03  -9.30692e-01  -7.82442e-01
Si    9.54693e+00   1.36002e+00   4.16670e+00 -5.25983e-01  -2.18621e-01  -9.04957e-02
Si    1.09120e+01   5.33529e+00   1.08439e+01 -2.49652e-01   1.00715e+00  -1.86358e-01
Si    2.75056e+00   8.12891e+00  -5.87089e-02 -5.88033e-01  -6.71047e-01  -2.65821e-01
Si    3.08159e-02   8.10424e+00   2.68699e+00  1.98236e-01   5.77877e-02   9.07721e-01
Si    2.73488e+00   5.42056e+00   2.65693e+00 -4.32072e-01  -7.35917e-02  -1.72516e-01
Si    1.37957e+00   6.78925e+00   1.30266e+00  5.78038e-02  -4.87008e-01  -1.52949e-01
Si    4.00879e+00   9.51325e+00   1.23186e+00  7.73974e-01   5.61710e-01   1.09883e+00
Si    1.52437e+00   9.42316e+00   4.04844e+00 -1.93065e+00   8.34066e-01  -1.43872e-02
Si    4.03386e+00   6.75155e+00   3.97382e+00  3.89418e-01  -2.33322e-01   1.28071e+00
Si    5.46950e+00   5.54178e+00   4.42169e-02 -3.81991e-01  -1.57316e+00  -2.97860e-01
Si    8.19627e+00   8.14937e+00   5.06575e-02 -8.14338e-01  -2.18937e-01  -1.30812e+00
Si    5.30552e+00   8.17627e+00   2.71817e+00  1.69915e-02   4.03854e-01  -1.10617e+00
C    8.16882e+00   5.58331e+00   2.66152e+00 -1.13241e+00  -3.18628e-01   4.21079e-01
Si    6.70348e+00   6.92710e+00   1.34480e+00  1.04086e+00  -2.17909e-01   6.89920e-01
Si    9.44644e+00   9.41370e+00   1.42320e+00  1.04892e+00   1.76703e+00   2.25230e-01
Si    6.63706e+00   9.50405e+00   4.03397e+00  5.29610e-01   4.17670e-01   1.17322e+00
Si    9.47148e+00   6.80609e+00   4.10053e+00  4.95574e-01   7.74144e-01   3.23018e-01
Si    7.86456e-02  -3.51299e-02   5.48482e+00  3.55794e-01  -3.43899e-01  -8.07846e-01
Si    2.66825e+00   2.64995e+00   5.42822e+00  1.07426e+00   1.07208e+00  -7.49559e-01
Si    1.09244e+01   2.66580e+00   8.09143e+00 -1.32633e+00   1.57040e-01   2.41243e-01
Si    2.70747e+00   2.99374e-02   8.22743e+00  1.26766e-02   7.20144e-02  -1.10856e-01
Si    1.41741e+00   1.37235e+00   6.79148e+00 -4.24275e-01  -1.24485e+00   3.77914e-01
Si    4.02251e+00   4.05820e+00   6.73286e+00  1.87389e-01  -5.46963e-01   2.53719e-01
Si    1.34180e+00   4.00140e+00   9.41593e+00  2.69012e-01  -4.68641e-01   1.42468e+00
Si    4.13067e+00   1.34653e+00   9.56003e+00 -8.35936e-02   4.89076e-01  -1.48303e+00
Si    5.27665e+00   8.86718e-03   5.44145e+00  1.36778e+00  -9.95161e-01   6.03972e-01
C    8.11059e+00   2.77641e+00   5.47802e+00  2.18513e-01  -8.66473e-01  -1.07141e+00
Si    5.45051e+00   2.71695e+00   8.08645e+00  8.51759e-02   1.49309e-01   5.77475e-01
Si    8.12744e+00   4.19433e-02   8.08982e+00  1.02510e+00   1.64992e-01   1.01045e+00
Si    6.80016e+00   1.30091e+00   6.71734e+00 -1.08055e+00   7.72952e-01   1.03602e-01
Si    9.44602e+00   4.01263e+00   6.82246e+00  7.52027e-01   8.57138e-01   5.95453e-01
Si    6.80461e+00   4.18096e+00   9.48944e+00 -1.02084e+00  -3.11061e-01  -4.24939e-01
Si    9.53789e+00   1.40496e+00   9.53403e+00 -5.25578e-01  -4.59328e-01  -6.15394e-01
Si    1.07871e+01   5.42530e+00   5.50331e+00  1.09741e+00  -5.57085e-01  -9.71229e-01
Si    2.74981e+00   8.04500e+00   5.42813e+00  2.08837e-01   3.10618e-01   9.29984e-01
Si    1.08948e+01   8.13375e+00   8.23756e+00 -5.19518e-01   2.89922e-01  -1.44704e+00
Si    2.63679e+00   5.31764e+00   8.13369e+00  1.39783e+00   8.65095e-01  -8.33912e-02
Si    1.36560e+00   6.75454e+00   6.86513e+00 -6.16937e-01   1.36694e-01  -7.65532e-01
Si    3.99995e+00   9.50120e+00   6.90250e+00  3.27014e-01  -5.81966e-01  -9.75432e-01
Si    1.37027e+00   9.47180e+00   9.50702e+00 -9.59039e-02   8.28717e-01   7.70077e-01
Si    4.06170e+00   6.68129e+00   9.49516e+00 -4.07782e-01   6.06334e-01  -4.21395e-01
C    5.39081e+00   5.39853e+00   5.38904e+00 -1.64500e-01   9.90213e-01   1.40347e-01
Si    8.07755e+00   8.21232e+00   5.44520e+00  2.12482e-01  -9.46469e-02  -4.10232e-01
Si    5.42066e+00   8.11046e+00   8.18976e+00  4.61275e-02   2.47988e-01  -1.00678e-01
Si    8.14742e+00   5.49288e+00   8.13733e+00  2.74852e-01  -8.87366e-02  -2.03617e-01
Si    6.74945e+00   6.79781e+00   6.75972e+00 -1.75705e-01  -1.04226e-01   7.17965e-02
Si    9.50289e+00   9.53990e+00   6.81996e+00  4.30319e-01  -8.43774e-01   6.41635e-02
Si    6.87298e+00   9.51335e+00   9.46524e+00 -6.71181e-01  -3.17438e-01   5.39671e-01
Si    9.55052e+00   6.78792e+00   9.52195e+00 -2.99815e-01  -5.16356e-01   6.50631e-01
