12
Lattice="6.6 0 0 3.3 5.71576766497729 0 0 0 30 " PBC="1 1 1" Properties="species:S:1:pos:R:3:vel:R:3" Energy="  0.000000"
Mo  0.000000e+00  0.000000e+00  0.000000e+00 0 0 0
S   1.650000e+00  9.526279e-01  1.650000e+00 0 0 0
S   1.650000e+00  9.526279e-01 -1.650000e+00 0 0 0
Mo  3.300000e+00  0.000000e+00  0.000000e+00 0 0 0
S   4.950000e+00  9.526279e-01  1.650000e+00 0 0 0
S   4.950000e+00  9.526279e-01 -1.650000e+00 0 0 0
Mo  1.650000e+00  2.857884e+00  0.000000e+00 0 0 0
S   3.300000e+00  3.810512e+00  1.650000e+00 0 0 0
S   3.300000e+00  3.810512e+00 -1.650000e+00 0 0 0
Mo  4.950000e+00  2.857884e+00  0.000000e+00 0 0 0
S   6.600000e+00  3.810512e+00  1.650000e+00 0 0 0
S   6.600000e+00  3.810512e+00 -1.650000e+00 0 0 0
