12
Lattice="6 0 0 3 5.19615242270663 0 0 0 30 " PBC="1 1 1" Properties="species:S:1:pos:R:3:vel:R:3" Energy="  0.000000"
Mo  0.100000e+00  0.000000e+00  0.000000e+00 0 0 0
S   1.500000e+00  8.660254e-01  1.500000e+00 0 0 0
S   1.600000e+00  8.650254e-01 -1.500000e+00 0 0 0
Mo  3.000000e+00  0.000000e+00  0.000000e+00 0 0 0
S   4.500000e+00  8.660254e-01  1.500000e+00 0 0 0
S   4.600000e+00  8.650254e-01 -1.500000e+00 0 0 0
Mo  1.500000e+00  2.598076e+00  0.000000e+00 0 0 0
S   3.000000e+00  3.464102e+00  1.500000e+00 0 0 0
S   3.100000e+00  3.454102e+00 -1.500000e+00 0 0 0
Mo  4.500000e+00  2.598076e+00  0.000000e+00 0 0 0
S   6.000000e+00  3.464102e+00  1.500000e+00 0 0 0
S   6.100000e+00  3.454102e+00 -1.500000e+00 0 0 0
