12
Lattice="6.2 0 0 3.1 5.36935750346352 0 0 0 30 " PBC="1 1 1" Properties="species:S:1:pos:R:3:vel:R:3" Energy="  0.000000"
Mo  0.000000e+00  0.000000e+00  0.000000e+00 0 0 0
S   1.550000e+00  8.948929e-01  1.550000e+00 0 0 0
S   1.550000e+00  8.948929e-01 -1.550000e+00 0 0 0
Mo  3.100000e+00  0.000000e+00  0.000000e+00 0 0 0
S   4.650000e+00  8.948929e-01  1.550000e+00 0 0 0
S   4.650000e+00  8.948929e-01 -1.550000e+00 0 0 0
Mo  1.550000e+00  2.684679e+00  0.000000e+00 0 0 0
S   3.100000e+00  3.579572e+00  1.550000e+00 0 0 0
S   3.100000e+00  3.579572e+00 -1.550000e+00 0 0 0
Mo  4.650000e+00  2.684679e+00  0.000000e+00 0 0 0
S   6.200000e+00  3.579572e+00  1.550000e+00 0 0 0
S   6.200000e+00  3.579572e+00 -1.550000e+00 0 0 0
