64
Lattice="10.8 0 0 0 10.8 0 0 0 10.8 " PBC="1 1 1" Properties=species:S:1:pos:R:3:force:R:3 Energy="0"
Si    0.000000000000000e+00   0.000000000000000e+00   0.000000000000000e+00  3.73312492e-15   3.76088050e-15   3.73312492e-15
Si    0.000000000000000e+00   2.700000000000000e+00   2.700000000000000e+00  3.84414722e-15   3.71924713e-15   3.70536934e-15
Si    2.700000000000000e+00   0.000000000000000e+00   2.700000000000000e+00  3.70910285e-15   3.85802501e-15   3.69649912e-15
Si    2.700000000000000e+00   2.700000000000000e+00   0.000000000000000e+00  3.70536934e-15   3.71924713e-15   3.91353616e-15
Si    1.350000000000000e+00   1.350000000000000e+00   1.350000000000000e+00  2.88183827e-16   2.77555756e-16   2.79620075e-16
Si    1.350000000000000e+00   4.050000000000000e+00   4.050000000000000e+00 -7.37835467e-18  -7.44912234e-15  -7.49075570e-15
Si    4.050000000000000e+00   1.350000000000000e+00   4.050000000000000e+00 -7.44912234e-15   6.49943313e-18  -7.50463349e-15
Si    4.050000000000000e+00   4.050000000000000e+00   1.350000000000000e+00 -7.44912234e-15  -7.46300012e-15   2.03772209e-17
Si    5.400000000000000e+00   0.000000000000000e+00   0.000000000000000e+00 -2.83598762e-15   3.94129174e-15   3.95279873e-15
Si    5.400000000000000e+00   2.700000000000000e+00   2.700000000000000e+00  3.76369458e-16   6.16015726e-15   6.25405206e-15
Si    8.100000000000000e+00   0.000000000000000e+00   2.700000000000000e+00 -1.77689306e-14   3.52495810e-15   3.27406118e-15
Si    8.100000000000000e+00   2.700000000000000e+00   0.000000000000000e+00 -1.49463775e-14   5.96744876e-16   6.32827124e-15
Si    6.750000000000000e+00   1.350000000000000e+00   1.350000000000000e+00  2.02282828e-14   3.65346254e-16   3.15544271e-16
Si    6.750000000000000e+00   4.050000000000000e+00   4.050000000000000e+00  1.50712776e-14  -7.46624984e-15  -1.32116540e-14
Si    9.449999999999999e+00   1.350000000000000e+00   4.050000000000000e+00 -3.22922626e-16   3.65741386e-16  -7.22185235e-15
Si    9.449999999999999e+00   4.050000000000000e+00   1.350000000000000e+00 -3.60822483e-16  -7.22343288e-15   3.07770783e-16
Si    0.000000000000000e+00   5.400000000000000e+00   0.000000000000000e+00  3.90703673e-15  -2.84573677e-15   3.95683871e-15
Si    0.000000000000000e+00   8.100000000000000e+00   2.700000000000000e+00  3.51108032e-15  -1.77358128e-14   3.27515792e-15
Si    2.700000000000000e+00   5.400000000000000e+00   2.700000000000000e+00  6.16674535e-15   3.82473758e-16   6.22757053e-15
Si    2.700000000000000e+00   8.100000000000000e+00   0.000000000000000e+00  6.10622664e-16  -1.49463775e-14   6.32827124e-15
Si    1.350000000000000e+00   6.750000000000000e+00   1.350000000000000e+00  3.70265157e-16   2.02005272e-14   3.20463174e-16
Si    1.350000000000000e+00   9.449999999999999e+00   4.050000000000000e+00  3.60822483e-16  -3.33066907e-16  -7.21644966e-15
Si    4.050000000000000e+00   6.750000000000000e+00   4.050000000000000e+00 -7.46054067e-15   1.50685116e-14  -1.32170567e-14
Si    4.050000000000000e+00   9.449999999999999e+00   1.350000000000000e+00 -7.22756152e-15  -3.25777210e-16   3.13084819e-16
Si    5.400000000000000e+00   5.400000000000000e+00   0.000000000000000e+00  2.22044605e-16   2.08166817e-16   7.16093851e-15
Si    5.400000000000000e+00   8.100000000000000e+00   2.700000000000000e+00 -2.58895336e-15  -1.73610720e-14   3.82868890e-15
Si    8.100000000000000e+00   5.400000000000000e+00   2.700000000000000e+00 -1.73497424e-14  -2.59554145e-15   3.83773645e-15
Si    8.100000000000000e+00   8.100000000000000e+00   0.000000000000000e+00 -1.78745907e-14  -1.78745907e-14   4.45476989e-15
Si    6.750000000000000e+00   6.750000000000000e+00   1.350000000000000e+00  1.78144266e-14   1.78144266e-14  -2.94121209e-15
Si    6.750000000000000e+00   9.449999999999999e+00   4.050000000000000e+00  2.03864703e-14  -4.99600361e-16  -7.85482790e-15
Si    9.449999999999999e+00   6.750000000000000e+00   4.050000000000000e+00 -5.00874416e-16   2.03605612e-14  -7.85531169e-15
Si    9.449999999999999e+00   9.449999999999999e+00   1.350000000000000e+00 -3.19189120e-16  -3.19189120e-16   3.33066907e-16
Si    0.000000000000000e+00   0.000000000000000e+00   5.400000000000000e+00  4.02455846e-15   3.94463011e-15  -2.78333105e-15
Si    0.000000000000000e+00   2.700000000000000e+00   8.100000000000000e+00  3.49720253e-15   3.35842465e-15  -1.78190795e-14
Si    2.700000000000000e+00   0.000000000000000e+00   8.100000000000000e+00  3.36097276e-15   3.49720253e-15  -1.78349811e-14
Si    2.700000000000000e+00   2.700000000000000e+00   5.400000000000000e+00  6.23604563e-15   6.20710466e-15   4.33066006e-16
Si    1.350000000000000e+00   1.350000000000000e+00   6.750000000000000e+00  3.39566340e-16   3.33945830e-16   2.02837053e-14
Si    1.350000000000000e+00   4.050000000000000e+00   9.449999999999999e+00  3.46944695e-16  -7.24420524e-15  -3.05311332e-16
Si    4.050000000000000e+00   1.350000000000000e+00   9.449999999999999e+00 -7.23032745e-15   3.33066907e-16  -3.05311332e-16
Si    4.050000000000000e+00   4.050000000000000e+00   6.750000000000000e+00 -1.02916094e-14  -1.02888435e-14   1.78718248e-14
Si    5.400000000000000e+00   0.000000000000000e+00   5.400000000000000e+00  1.38777878e-16   6.99440506e-15   2.08166817e-16
Si    5.400000000000000e+00   2.700000000000000e+00   8.100000000000000e+00 -2.59180795e-15   3.65644628e-15  -1.74211475e-14
Si    8.100000000000000e+00   0.000000000000000e+00   8.100000000000000e+00 -1.78456092e-14   4.38538095e-15  -1.79112647e-14
Si    8.100000000000000e+00   2.700000000000000e+00   5.400000000000000e+00 -1.45926269e-14   9.47818209e-16   2.55993138e-16
Si    6.750000000000000e+00   1.350000000000000e+00   6.750000000000000e+00  1.77648424e-14  -2.93954291e-15   1.77925980e-14
Si    6.750000000000000e+00   4.050000000000000e+00   9.449999999999999e+00  1.75276460e-14  -5.03763697e-15  -3.40005801e-15
Si    9.449999999999999e+00   1.350000000000000e+00   9.449999999999999e+00 -3.46944695e-16   3.60822483e-16  -3.60822483e-16
Si    9.449999999999999e+00   4.050000000000000e+00   6.750000000000000e+00 -5.27355937e-16  -7.79980054e-15   2.04299502e-14
Si    0.000000000000000e+00   5.400000000000000e+00   5.400000000000000e+00  6.99440506e-15   1.66533454e-16   2.08166817e-16
Si    0.000000000000000e+00   8.100000000000000e+00   8.100000000000000e+00  4.42701431e-15  -1.78468351e-14  -1.79162241e-14
Si    2.700000000000000e+00   5.400000000000000e+00   8.100000000000000e+00  3.66342951e-15  -2.59554145e-15  -1.74244453e-14
Si    2.700000000000000e+00   8.100000000000000e+00   5.400000000000000e+00  9.11498881e-16  -1.45801118e-14   2.58363933e-16
Si    1.350000000000000e+00   6.750000000000000e+00   6.750000000000000e+00 -2.91956082e-15   1.77649311e-14   1.77865824e-14
Si    1.350000000000000e+00   9.449999999999999e+00   9.449999999999999e+00  3.66136519e-16  -3.42904715e-16  -3.66136519e-16
Si    4.050000000000000e+00   6.750000000000000e+00   9.449999999999999e+00 -5.03763697e-15   1.75415238e-14  -3.41393580e-15
Si    4.050000000000000e+00   9.449999999999999e+00   6.750000000000000e+00 -7.78592275e-15  -5.28629992e-16   2.04299502e-14
Si    5.400000000000000e+00   5.400000000000000e+00   5.400000000000000e+00  2.08166817e-16   2.08166817e-16   2.91433544e-16
Si    5.400000000000000e+00   8.100000000000000e+00   8.100000000000000e+00 -2.55992373e-15  -1.78064353e-14  -1.78076612e-14
Si    8.100000000000000e+00   5.400000000000000e+00   8.100000000000000e+00 -1.78158780e-14  -2.55105351e-15  -1.78158780e-14
Si    8.100000000000000e+00   8.100000000000000e+00   5.400000000000000e+00 -1.78631724e-14  -1.79071360e-14  -2.55548862e-15
Si    6.750000000000000e+00   6.750000000000000e+00   6.750000000000000e+00  1.79988778e-14   1.79850000e-14   1.79898303e-14
Si    6.750000000000000e+00   9.449999999999999e+00   9.449999999999999e+00  2.06935395e-14  -3.55992238e-16  -3.70571632e-16
Si    9.449999999999999e+00   6.750000000000000e+00   9.449999999999999e+00 -3.60822483e-16   2.06917816e-14  -3.60822483e-16
Si    9.449999999999999e+00   9.449999999999999e+00   6.750000000000000e+00 -3.60822483e-16  -3.46944695e-16   2.06917816e-14
