64
Lattice="10.8 0 0 0 10.8 0 0 0 10.8 " PBC="1 1 1" Properties=species:S:1:pos:R:3:force:R:3 Energy="0"
Si   -4.795282904800000e-02  -3.292681641100000e-02   4.602129540600000e-02  1.26775406e+00   1.68787986e-01  -8.35243257e-01
Si    2.543499527100000e-02   2.662395526200000e+00   2.723974976500000e+00 -1.25369202e+00   1.19399559e+00  -7.53745097e-01
Si    2.733692335900000e+00   1.171131937700000e-02   2.710929737000000e+00 -9.18513645e-01  -2.68628133e-01  -4.94912552e-01
Si    2.749443249900000e+00   2.703502563500000e+00   5.266392182300000e-02 -1.09458732e+00  -1.62525253e-01  -4.18323631e-01
Si    1.314168439900000e+00   1.358670927800000e+00   1.406358357900000e+00  9.12863809e-01  -6.29627935e-01  -9.56787526e-01
Si    1.294687778700000e+00   4.054392842800000e+00   4.009433360100000e+00  1.11951277e+00   3.46204210e-01   7.65754997e-01
Si    4.045958936300000e+00   1.312923503000000e+00   4.019933161700000e+00 -4.59896159e-01   5.55432552e-01   1.17011141e+00
Si    4.085349552300000e+00   4.003326317800000e+00   1.401650838500000e+00 -3.97526831e-02   1.32647218e+00  -3.90334327e-01
Si    5.404193621400000e+00   5.948926689900000e-02   3.090135670000000e-02  7.71786480e-01  -8.22484917e-01   1.68195275e-01
Si    5.359125697000000e+00   2.649122283400000e+00   2.770245689500000e+00  8.68628724e-01   6.68044146e-01  -5.44260487e-01
Si    8.109340746599999e+00   5.958751762200000e-02   2.704075510300000e+00  5.11068061e-01  -9.94783710e-01  -6.13521715e-01
Si    8.148388248500000e+00   2.699431259100000e+00   1.579385086800000e-02 -5.30885531e-01  -1.84580348e-01  -7.30200190e-01
Si    6.785557866400000e+00   1.407949855200000e+00   1.410932215400000e+00 -5.26075718e-01  -1.95627186e-01  -6.72050575e-01
Si    6.711408737100000e+00   4.023430963200000e+00   4.084083066300000e+00  2.94346035e-01   7.04186818e-01  -5.18357645e-01
Si    9.426070144500001e+00   1.391695267300000e+00   4.016282802200000e+00  4.45884617e-01  -7.50340706e-01   6.42241466e-01
Si    9.445087827400000e+00   4.074288583600000e+00   1.301337322900000e+00  1.49335434e+00  -7.39093803e-01   3.68391710e-01
Si    2.998785126700000e-02   5.398062638600000e+00  -6.487477627700000e-02 -9.65934500e-02   2.85503770e-01   5.40597091e-01
Si   -3.861793624000000e-02   8.049718154000001e+00   2.726145175700000e+00  7.50461019e-01   6.94025366e-01   2.24802682e-01
Si    2.656309212700000e+00   5.442354221600000e+00   2.671499230200000e+00  7.24680279e-01  -9.44397538e-01   2.52550065e-01
Si    2.676553643600000e+00   8.096339420200000e+00  -5.896025320900000e-02  1.70841988e-01   1.16149110e-02   9.35846145e-01
Si    1.334527775600000e+00   6.769814397700000e+00   1.370899719800000e+00 -2.37711779e-01  -1.69169158e-03  -1.13267509e+00
Si    1.339264549500000e+00   9.492875956500001e+00   4.033291873700000e+00 -2.53623233e-01  -6.68429831e-01   3.59935784e-01
Si    4.049772290900000e+00   6.777576443100000e+00   3.996539867500000e+00 -4.23580010e-01   5.26401790e-01   3.16252137e-01
Si    4.028576411100000e+00   9.454755652999999e+00   1.348106593000000e+00  4.31670198e-01  -1.04415767e-01  -2.85144287e-01
Si    5.435616258500000e+00   5.407501843700000e+00  -4.542097762700000e-02 -4.14670505e-01  -3.36085650e-02   1.35140644e+00
Si    5.455730492200000e+00   8.172372958500000e+00   2.738711023900000e+00 -7.88310321e-01  -7.26557778e-01  -1.08800413e+00
Si    8.159737740800001e+00   5.353549674500000e+00   2.668262669900000e+00 -9.14989909e-01   6.35546573e-01   1.23249323e+00
Si    8.073336235399999e+00   8.067841269400001e+00   3.040493258200000e-02  1.03001646e+00   2.10231144e-01  -5.53269024e-01
Si    6.786904051500000e+00   6.772795809500000e+00   1.367216019000000e+00 -6.79855422e-01  -7.38422558e-01   3.95203342e-01
Si    6.745879711300000e+00   9.529086076100000e+00   4.011470223000000e+00  8.87721140e-01  -4.29541514e-01   1.11664366e+00
Si    9.499688928899999e+00   6.717916382700000e+00   4.119586220900000e+00 -1.54354483e+00   4.12215761e-01  -9.27542914e-01
Si    9.472374771300000e+00   9.389093561599999e+00   1.351360708200000e+00 -1.14065037e+00   4.94242275e-01   6.31613439e-01
Si   -7.476499222400000e-02  -1.097899072900000e-02   5.410112637200000e+00  4.40358517e-01   2.64759984e-01  -5.15586055e-01
Si   -5.474126361100000e-02   2.677963440900000e+00   8.151929348199999e+00  1.08994160e+00   8.69292875e-01  -1.28289618e+00
Si    2.741065878400000e+00  -3.729549390600000e-02   8.118572038900000e+00 -7.24957125e-01   1.00195852e+00  -6.36093780e-01
Si    2.719266628900000e+00   2.724457178700000e+00   5.401549575200000e+00 -8.72049187e-01  -6.17406543e-01  -7.96167949e-01
Si    1.294646286500000e+00   1.357392648500000e+00   6.730497667100000e+00  7.38208400e-01  -2.53778264e-01   6.21537903e-01
Si    1.384782767500000e+00   4.051083300300000e+00   9.404518252800001e+00  3.11301220e-01  -4.39985937e-01   4.60604172e-01
Si    4.057938057500000e+00   1.345231504200000e+00   9.486797212000001e+00 -1.77860860e-01   2.33078095e-01  -5.12766981e-01
Si    4.065586466400000e+00   4.027766071000000e+00   6.710485219400000e+00 -5.18990120e-02   9.30589857e-01  -1.56378033e-01
Si    5.402921388800000e+00   3.253558218300000e-02   5.361667484300000e+00 -1.15175433e-01  -3.40062442e-01   8.91523581e-01
Si    5.340350533100000e+00   2.707259533400000e+00   8.062863685100000e+00  9.94069710e-01  -1.78219540e-01   9.70283654e-01
Si    8.153573326300000e+00  -4.481109060900000e-02   8.065424090000000e+00 -6.53173634e-01   3.68076165e-01   6.15876617e-01
Si    8.083918010800000e+00   2.658386125200000e+00   5.365809668500000e+00 -6.33813466e-03   8.46255440e-01   7.91631251e-01
Si    6.754057734700000e+00   1.366256751700000e+00   6.770931850100000e+00 -6.51980294e-02  -5.76931672e-01  -2.65969234e-01
Si    6.755367869700000e+00   4.051188311500000e+00   9.455577803900001e+00 -1.40320154e-01  -8.33678855e-01  -3.75310571e-01
Si    9.495651144500000e+00   1.334029512600000e+00   9.418961164300001e+00 -1.18904825e+00  -6.91637653e-01   1.12691637e+00
Si    9.415790332100000e+00   4.051731059900000e+00   6.758173462600000e+00  4.56173176e-01  -1.79888715e-01  -5.81740096e-01
Si    2.742662232100000e-02   5.451919672500000e+00   5.395244083100000e+00 -4.44896120e-01  -1.86526869e+00   5.80389697e-01
Si    1.327197956400000e-02   8.082092769899999e+00   8.070572338100000e+00 -7.78617880e-02  -2.13205563e-01   4.63146016e-01
Si    2.751889154700000e+00   5.392710084900000e+00   8.051244235300000e+00 -3.72063989e-01   7.84928079e-03   3.08441439e-01
Si    2.679906935000000e+00   8.096935104700000e+00   5.418745978700000e+00 -2.95829871e-01  -1.67655728e-01  -6.16445414e-01
Si    1.314779405100000e+00   6.710523860900000e+00   6.759091536700000e+00  1.13209461e+00   6.19654767e-01  -1.10013524e-02
Si    1.357369683400000e+00   9.433202360799999e+00   9.395016046700000e+00 -6.52870491e-01   3.84340209e-01   8.05156015e-01
Si    4.058035846700000e+00   6.755675014500000e+00   9.447593484100000e+00 -2.84570525e-01  -3.94813071e-01  -1.15950576e-01
Si    4.034283319000000e+00   9.434044664500000e+00   6.731617337700000e+00  5.27024261e-01   4.43393696e-01  -1.52673044e-01
Si    5.356063483300000e+00   5.476561538800000e+00   5.376786656500000e+00  9.23439891e-01  -5.68470150e-01   5.59263302e-01
Si    5.346812384400000e+00   8.124968529300000e+00   8.135619051600001e+00  1.03978373e+00  -7.49118490e-02  -4.17013248e-01
Si    8.061657794300000e+00   5.376449084800000e+00   8.089211856700000e+00  6.09003898e-01   3.71843117e-01   3.81084805e-01
Si    8.077034111800000e+00   8.091589592200000e+00   5.428009479300000e+00  3.23207857e-01   5.12706761e-01  -9.03683055e-01
Si    6.789529378300000e+00   6.787738701400000e+00   6.794040056100000e+00 -1.56998510e+00  -2.80565938e-01  -2.43663535e-01
Si    6.786399848700000e+00   9.418421595200000e+00   9.476085310500000e+00 -6.98687568e-01   9.23870726e-01  -1.11395908e-01
Si    9.447157113099999e+00   6.755856511200000e+00   9.423712038900000e+00 -2.73713555e-01  -2.24484441e-01   7.80317641e-02
Si    9.467375434599999e+00   9.388469828700000e+00   6.764683637300000e+00 -2.81765136e-01   2.85147726e-01  -5.16818004e-01
