288
Lattice="33.337151 0.035285 0.03087 0.027151 25.621674 -0.000664 0.027093 9e-05 30.262626 " PBC="1 1 1" Properties="species:S:1:pos:R:3:force:R:3" Energy=" -5.302666" Stress="1.1 2.2 3.3 4.4 5.5 6.6"
Mo   0.051823  -0.017150  16.736001  -0.425324   0.295866  -0.065479
Mo   2.819495   1.607633  16.734550   0.245043  -0.061658   0.264104
S    1.901722  -0.004881  18.317009   0.010127   0.041539   0.301571
S    4.670803   1.619697  18.350205   0.079468  -0.072558  -0.340646
S    4.667225   1.621074  15.121571   0.126296  -0.152711   0.313083
S    1.883895   0.016641  15.178867   0.224514  -0.233065  -0.737724
Mo   5.601008   0.015314  16.738646  -0.164382  -0.103679  -0.050262
Mo   8.370835   1.601129  16.729171   0.553379   0.021084   0.037481
S    7.461551   0.000839  18.317838  -0.114673   0.055222   0.289708
S   10.241841   1.624811  18.345207  -0.216768  -0.233846  -0.164249
S   10.239949   1.623684  15.148107  -0.080826  -0.207876  -0.104970
S    7.469557   0.000225  15.157843  -0.282438   0.026524  -0.390813
Mo  11.153342   0.013578  16.742422   0.146786  -0.068154   0.077692
Mo  13.919499   1.603327  16.734368   0.432662   0.241675   0.311574
S   13.001962   0.009014  18.344197   0.122632  -0.074061  -0.191599
S   15.777897   1.619256  18.336078  -0.081615  -0.093278   0.040828
S   15.791115   1.608757  15.140898  -0.125566   0.027549   0.065630
S   13.027890   0.009428  15.164736  -0.273213  -0.065238  -0.415879
Mo  16.705214   0.025789  16.744884  -0.078231  -0.408593   0.280542
Mo  19.481897   1.625155  16.750122   0.531136  -0.308733   0.140659
S   18.570083   0.030683  18.331779  -0.116122  -0.234861   0.140859
S   21.351537   1.617802  18.372045  -0.193526   0.024406  -0.389604
S   21.351845   1.614720  15.154340  -0.196685   0.110749   0.002252
S   18.536969   0.040300  15.155039   0.326029  -0.334375  -0.015237
Mo  22.260811   0.029451  16.746707   0.260188  -0.080013   0.036722
Mo  25.053380   1.608231  16.762117  -0.174428   0.422927  -0.591488
S   24.109677   0.019383  18.346959   0.139887  -0.009086   0.024012
S   26.906545   1.654705  18.326533  -0.102870  -0.258919   0.525181
S   26.909821   1.652719  15.150617  -0.107031  -0.308987   0.132722
S   24.113436   0.019345  15.146772   0.212565   0.000322   0.207327
Mo  27.835999   0.043639  16.762601  -0.245294  -0.378551  -0.308757
Mo  30.615058   1.629166  16.770634  -0.125816  -0.347015  -0.421362
S   29.676962   0.047529  18.367115   0.109263  -0.305028  -0.160466
S   32.463230   1.629674  18.349704   0.072026  -0.096888   0.154310
S   32.455294   1.642489  15.160839   0.078633  -0.225216   0.157672
S   29.683523   0.004445  15.156591   0.041742   0.487794   0.129901
Mo   0.040547   3.204299  16.731825   0.187991  -0.063173   0.001412
Mo   2.830441   4.804125  16.738942  -0.209727  -0.156496  -0.064892
S    1.893899   3.198965  18.338242   0.019021   0.167060  -0.120169
S    4.682583   4.808720  18.337618   0.057005  -0.117926  -0.073422
S    4.657822   4.783196  15.143625   0.350392   0.371415   0.044249
S    1.889267   3.183868  15.138313   0.083240   0.315484   0.028380
Mo   5.612201   3.209123  16.732385  -0.144103  -0.048843   0.075705
Mo   8.387407   4.815627  16.744762  -0.387397  -0.293545  -0.268410
S    7.470283   3.173526  18.326969  -0.152067   0.377530   0.032039
S   10.217687   4.792907  18.322686   0.253687   0.227130   0.249783
S   10.234443   4.807068  15.144618   0.102124   0.012958   0.065759
S    7.456100   3.204866  15.117033   0.074722   0.198437   0.348592
Mo  11.161836   3.200266  16.744329   0.050127   0.451633  -0.084774
Mo  13.935774   4.818321  16.746337   0.020865  -0.232800  -0.158683
S   13.011913   3.213312  18.350953   0.030495   0.042886  -0.215748
S   15.780827   4.826389  18.343823   0.144889  -0.174370  -0.065681
S   15.799397   4.812307  15.150796  -0.113194  -0.050590  -0.079041
S   13.007566   3.215668  15.138922   0.066653   0.082167   0.117639
Mo  16.708465   3.210058  16.746135  -0.074781   0.278080   0.211607
Mo  19.493795   4.819756  16.743930   0.495330   0.172790   0.157780
S   18.570798   3.216931  18.335261  -0.084263   0.194625   0.163544
S   21.389460   4.841292  18.369967  -0.553476  -0.286960  -0.365241
S   21.383016   4.843676  15.157822  -0.492629  -0.335682  -0.084491
S   18.556227   3.202891  15.182350   0.146975   0.268777  -0.559130
Mo  22.256155   3.223554  16.752638   0.529835   0.154086  -0.101723
Mo  25.062332   4.834686  16.765945  -0.149618  -0.234697  -0.292972
S   24.112718   3.236833  18.337443   0.135347  -0.109877   0.073740
S   26.929791   4.860570  18.356444  -0.258204  -0.464210   0.031204
S   26.877700   4.828221  15.164918   0.308801  -0.106674  -0.158436
S   24.143952   3.244395  15.130373  -0.186619  -0.154055   0.670334
Mo  27.818666   3.228493  16.756293   0.357622   0.484347  -0.152877
Mo  30.611384   4.835774  16.764692  -0.025593  -0.155460  -0.021960
S   29.681728   3.208009  18.352696  -0.026271   0.304985   0.044138
S   32.458862   4.840673  18.353476   0.002872  -0.145897   0.156958
S   32.459271   4.817968  15.150955   0.025462   0.180078   0.189133
S   29.693635   3.230368  15.176714  -0.082907   0.055228  -0.065775
Mo   0.049866   6.386896  16.731779  -0.041375   0.235793  -0.326301
Mo   2.835929   8.016614  16.729107  -0.178924  -0.100160   0.152716
S    1.897176   6.419696  18.310881   0.112160  -0.096590   0.232833
S    4.683345   8.012243  18.323808  -0.008243   0.091516   0.165671
S    4.667907   8.002904  15.134893   0.273230   0.084470   0.038307
S    1.910609   6.417540  15.130676  -0.041456  -0.142962   0.127122
Mo   5.610919   6.410696  16.748121  -0.130816  -0.202427  -0.538134
Mo   8.361093   8.018196  16.747016   0.201284   0.023046  -0.110657
S    7.440374   6.415985  18.356162   0.203495  -0.057092  -0.191716
S   10.221218   8.028135  18.333666   0.152690   0.018688  -0.038031
S   10.231882   8.040355  15.157385  -0.002038  -0.185928  -0.037001
S    7.471802   6.406654  15.120086  -0.189615   0.035570   0.461346
Mo  11.155465   6.418442  16.743633  -0.065457  -0.004130  -0.097423
Mo  13.954145   8.023587  16.752086  -0.388156  -0.029833  -0.433280
S   13.005874   6.415778  18.322633   0.035543   0.028267   0.289619
S   15.775398   8.023683  18.341112   0.382649   0.110113  -0.046607
S   15.794335   8.035415  15.151504   0.087186  -0.048067  -0.084159
S   13.011632   6.426366  15.155641   0.025765  -0.021746  -0.073215
Mo  16.708163   6.414393  16.736032   0.371630   0.280555   0.217409
Mo  19.501697   8.033336  16.755240   0.119976   0.047137  -0.053994
S   18.594017   6.439852  18.326610  -0.356065  -0.194699   0.130518
S   21.357116   8.027184  18.368076  -0.030547   0.076070  -0.214526
S   21.346064   8.013544  15.171574   0.135237   0.379421  -0.230250
S   18.584538   6.446032  15.148594  -0.128204  -0.198949   0.060246
Mo  22.262059   6.429661  16.746068   0.734250   0.075721   0.326946
Mo  25.076958   8.042301  16.759352  -0.853296  -0.248560  -0.423579
S   24.144620   6.428234  18.335920  -0.220792   0.152925   0.118310
S   26.879176   8.025151  18.341068   0.485740   0.177583   0.192513
S   26.887452   8.015945  15.148212   0.337281   0.309137   0.137524
S   24.131631   6.415484  15.137181   0.017730   0.207561   0.476943
Mo  27.825774   6.416463  16.747862   0.113579   0.438571  -0.077593
Mo  30.613075   8.043022  16.759923  -0.082308  -0.197043  -0.038605
S   29.674160   6.444315  18.351015   0.062718  -0.033588  -0.004667
S   32.467997   8.036170  18.359426  -0.016562   0.072931  -0.097212
S   32.459823   8.042602  15.169019   0.115874  -0.107773  -0.096985
S   29.684279   6.429895  15.163781   0.048867   0.006104   0.018806
Mo   0.047392   9.601107  16.721472   0.077711   0.079727   0.350520
Mo   2.834061  11.204879  16.741872  -0.222522   0.489906   0.078249
S    1.883904   9.605064  18.334505   0.173606  -0.059511  -0.075390
S    4.674115  11.210931  18.339500   0.085534   0.022918  -0.082634
S    4.686019  11.217111  15.137512  -0.088130   0.046100   0.011850
S    1.907941   9.610094  15.154062   0.016008  -0.030824  -0.307305
Mo   5.596335   9.615062  16.733649   0.093128  -0.069026  -0.036901
Mo   8.390572  11.206291  16.744838  -0.198979   0.438734  -0.004958
S    7.441722   9.636015  18.331536   0.065081  -0.214640   0.113698
S   10.244482  11.211600  18.329373   0.010413   0.077798   0.180913
S   10.236411  11.207897  15.148363   0.073590   0.184276  -0.048696
S    7.446038   9.613902  15.145132   0.094814  -0.053213  -0.032580
Mo  11.185034   9.630943  16.736796  -0.523094  -0.409094   0.048613
Mo  13.946501  11.217255  16.736353  -0.117121   0.367781   0.083113
S   13.007934   9.600284  18.317470   0.260141   0.211681   0.415029
S   15.794607  11.247322  18.351664   0.026289  -0.072713  -0.229260
S   15.789251  11.211214  15.151174   0.117729   0.311317  -0.101316
S   13.013789   9.626898  15.143701   0.236451  -0.177341  -0.060509
Mo  16.721773   9.642263  16.737012   0.011518  -0.482347   0.438717
Mo  19.496251  11.228361  16.750870   0.069166   0.174631  -0.003930
S   18.580264   9.626839  18.334791  -0.153403  -0.003760   0.137609
S   21.345762  11.216571  18.340964   0.014614   0.174412   0.150660
S   21.375542  11.236672  15.181052  -0.187859  -0.022775  -0.260586
S   18.577380   9.615991  15.147280   0.042163   0.094399   0.025248
Mo  22.288150   9.626436  16.763592  -0.230737  -0.230640  -0.223114
Mo  25.061765  11.238024  16.752670   0.018545   0.183129   0.106588
S   24.117056   9.646612  18.340613   0.329479  -0.138952   0.234465
S   26.918361  11.223771  18.359463  -0.129569   0.293801  -0.114982
S   26.901263  11.234024  15.141108   0.159134   0.182093   0.281598
S   24.133317   9.637038  15.165555   0.076904  -0.126124  -0.086179
Mo  27.819884   9.651825  16.759852   0.282236  -0.755117  -0.504843
Mo  30.613722  11.242785  16.755779   0.114054  -0.009065   0.012144
S   29.681682   9.635745  18.339262   0.036710   0.013621   0.149679
S   32.479921  11.258232  18.360339  -0.154061  -0.074105  -0.194171
S   32.469366  11.239339  15.160512  -0.016711   0.062309   0.013775
S   29.694577   9.615976  15.146407  -0.158595   0.233228   0.287952
Mo   0.064074  12.809503  16.722561  -0.151557   0.077564   0.222977
Mo   2.837883  14.431204  16.738615   0.024772  -0.562884   0.133219
S    1.903339  12.831508  18.348858   0.136363  -0.196076  -0.362022
S    4.707368  14.402749  18.329758  -0.187675   0.070537   0.044074
S    4.707618  14.420245  15.159106  -0.179227  -0.069062  -0.195936
S    1.886897  12.821596  15.142444   0.490735  -0.112314   0.000154
Mo   5.618167  12.807885  16.737401  -0.096273   0.030394   0.124618
Mo   8.398247  14.419528  16.733408   0.080626  -0.112995   0.147274
S    7.453758  12.838922  18.349844   0.247026  -0.295579  -0.275294
S   10.262913  14.414001  18.350968  -0.203958   0.025045  -0.288125
S   10.247554  14.408642  15.136816   0.092659   0.034299   0.183028
S    7.464203  12.823108  15.151015   0.142461  -0.167634  -0.108442
Mo  11.167929  12.818167  16.748991   0.241206  -0.022050  -0.206290
Mo  13.930977  14.422385  16.749471   0.578069   0.069596  -0.149022
S   13.038094  12.822331  18.346981  -0.218761  -0.081759  -0.165990
S   15.812399  14.401891  18.342417  -0.213683   0.264280  -0.127391
S   15.812479  14.410508  15.122669  -0.320315   0.055793   0.374433
S   13.020257  12.841132  15.125194   0.002746  -0.261025   0.391808
Mo  16.722941  12.839673  16.746232   0.194434  -0.458878  -0.106074
Mo  19.515776  14.441640  16.743823  -0.272087  -0.240802   0.280354
S   18.571980  12.839767  18.371032   0.135132  -0.014334  -0.522371
S   21.359765  14.416703  18.337786  -0.070560   0.193107   0.221956
S   21.357613  14.444414  15.132820   0.060389  -0.124453   0.286563
S   18.582272  12.831357  15.156511   0.038415   0.032561  -0.028453
Mo  22.274443  12.840976  16.763069   0.278217  -0.147343  -0.363158
Mo  25.052296  14.436066  16.749924   0.303550  -0.130860   0.061829
S   24.119996  12.836717  18.352558   0.202862   0.010937  -0.041378
S   26.908566  14.428066  18.350669   0.001031   0.105594  -0.076152
S   26.918944  14.445444  15.150520  -0.048198  -0.104577   0.177636
S   24.143263  12.829109  15.159391  -0.161953   0.109836  -0.006213
Mo  27.848337  12.845249  16.758208  -0.407576  -0.354436  -0.245965
Mo  30.612658  14.445737  16.745166   0.101940  -0.053277   0.425643
S   29.673062  12.835335  18.352046   0.351747   0.184540  -0.003438
S   32.493812  14.456322  18.338042  -0.357941  -0.146552   0.092489
S   32.473287  14.445476  15.159191  -0.057512  -0.056743  -0.037006
S   29.698624  12.838017  15.166613  -0.024667   0.038276  -0.187571
Mo   0.050466  16.017252  16.721340   0.424504   0.015558  -0.000570
Mo   2.846906  17.604491  16.735044  -0.132267   0.336180  -0.146028
S    1.913848  16.028617  18.329012  -0.090260   0.035839   0.015261
S    4.704393  17.633427  18.327793  -0.114893  -0.214203   0.173667
S    4.689495  17.631080  15.141366   0.109994  -0.254126  -0.027395
S    1.910756  15.993989  15.140291   0.042677   0.297464  -0.120881
Mo   5.610809  16.022901  16.746023   0.437802   0.069112  -0.256055
Mo   8.383905  17.628696  16.738340   0.327545  -0.418150  -0.081328
S    7.478989  16.009456  18.329693  -0.074748   0.223866  -0.008100
S   10.254553  17.616507  18.323682  -0.127786   0.041071   0.156156
S   10.252451  17.603649  15.136538  -0.099902   0.223240   0.175495
S    7.465214  15.998653  15.112116  -0.027411   0.294042   0.503527
Mo  11.177392  16.024601  16.739276   0.045284  -0.136911   0.069072
Mo  13.963721  17.618917  16.740558  -0.396064   0.180067   0.117356
S   13.022118  16.036590  18.367610   0.045776   0.011676  -0.420144
S   15.806978  17.619488  18.331694   0.061704  -0.032327   0.137415
S   15.811610  17.624653  15.169674  -0.017112   0.024980  -0.498966
S   13.024313  16.030330  15.143982   0.077445   0.011536   0.075257
Mo  16.720555  16.024019  16.732566   0.312727  -0.190026   0.326765
Mo  19.505069  17.645842  16.749269  -0.107838  -0.447605   0.362322
S   18.565430  16.037987  18.369864   0.110020   0.064675  -0.567759
S   21.364410  17.613752  18.360603  -0.032574   0.241273  -0.251726
S   21.355052  17.647311  15.175360   0.088329  -0.217092  -0.308749
S   18.584717  16.018604  15.139807   0.022013   0.305782   0.212355
Mo  22.282506  16.029512  16.752668   0.066702   0.173441  -0.162189
Mo  25.064311  17.639736  16.752558   0.213289   0.069777   0.076317
S   24.134299  16.046876  18.336959   0.075822  -0.014421   0.173169
S   26.926780  17.677500  18.371802  -0.170338  -0.493905  -0.278081
S   26.911858  17.632077  15.166222   0.135997   0.141351  -0.042303
S   24.150848  16.039566  15.156862  -0.163249   0.093166  -0.032481
Mo  27.836400  16.043853  16.754035  -0.122984   0.144947   0.277799
Mo  30.615959  17.642269  16.758804   0.029261   0.144588  -0.169880
S   29.676557  16.069109  18.347087   0.175368  -0.279468   0.070545
S   32.474283  17.643920  18.340774   0.011550   0.026382   0.236273
S   32.468095  17.649383  15.163989   0.078421   0.022334  -0.069102
S   29.679134  16.048352  15.161482   0.104076   0.041894  -0.079543
Mo   0.071534  19.217090  16.730887  -0.128564  -0.040412  -0.208522
Mo   2.854678  20.820983  16.737739   0.060076   0.018434  -0.209148
S    1.929766  19.240341  18.308949  -0.046579  -0.250284   0.270659
S    4.710049  20.831351  18.329260  -0.095672   0.029562   0.075852
S    4.716984  20.802376  15.153114  -0.104406   0.359381  -0.208006
S    1.915067  19.212884  15.129763   0.156016  -0.006216   0.163164
Mo   5.616532  19.222741  16.737767   0.405526  -0.003408   0.033189
Mo   8.395759  20.830517  16.741533   0.330058   0.058521  -0.082347
S    7.476967  19.255206  18.334562  -0.082542  -0.277200   0.048298
S   10.259076  20.810118  18.315299  -0.092799   0.316636   0.331677
S   10.261794  20.849222  15.147804  -0.096433  -0.195267  -0.105438
S    7.496292  19.219059  15.152902  -0.290350   0.080607  -0.173004
Mo  11.168757  19.225115  16.741728   0.283665  -0.125208  -0.308516
Mo  13.951995  20.831870  16.754493   0.148771   0.095424  -0.294554
S   13.051303  19.252594  18.324348  -0.271382  -0.316297   0.196226
S   15.825259  20.816588  18.342109  -0.161080   0.248854   0.002083
S   15.792507  20.815937  15.170971   0.220006   0.237248  -0.309304
S   13.011429  19.231516  15.142097   0.237333  -0.020641   0.161872
Mo  16.733402  19.228383  16.746408   0.332264  -0.177354   0.255880
Mo  19.525035  20.840694  16.762624  -0.252950  -0.329467  -0.082750
S   18.589557  19.226488  18.388577  -0.074786   0.116229  -0.635605
S   21.363456  20.840543  18.359179   0.115641   0.030557  -0.142118
S   21.374338  20.829211  15.143925  -0.089111   0.204276   0.164141
S   18.587598  19.226551  15.139925   0.021574   0.206244   0.287832
Mo  22.282250  19.237238  16.747611   0.310399   0.039798   0.317680
Mo  25.072544  20.837237  16.753834   0.102245   0.309931  -0.151931
S   24.158126  19.250760  18.332020  -0.270812  -0.107903   0.216484
S   26.918863  20.826378  18.339230   0.090417   0.385276   0.151132
S   26.919985  20.847617  15.140220   0.078537  -0.115048   0.221064
S   24.161604  19.252559  15.156717  -0.250487  -0.122360  -0.021353
Mo  27.847777  19.243572  16.769209   0.025415   0.018543  -0.677554
Mo  30.633403  20.847661  16.763165  -0.300260   0.186893  -0.283810
S   29.696329  19.249435  18.354647   0.117427   0.019397  -0.000114
S   32.487524  20.844997  18.354270  -0.055507   0.091515   0.058106
S   32.484899  20.868467  15.170969  -0.079827  -0.310385  -0.222514
S   29.697705  19.224553  15.140264   0.027297   0.235341   0.416979
Mo   0.064939  22.399164  16.720504   0.244338   0.396911   0.263726
Mo   2.849541  24.022362  16.731675   0.051704  -0.163878   0.139500
S    1.921970  22.408183  18.342789  -0.020612   0.053983  -0.293974
S    4.697235  24.033021  18.343778   0.062669   0.050454  -0.245937
S    4.703431  24.019876  15.138243   0.029050   0.152098   0.051521
S    1.927130  22.398849  15.136000   0.044825   0.136387  -0.008315
Mo   5.630170  22.429723  16.739037   0.079929  -0.126967  -0.130838
Mo   8.395639  24.022816  16.735392   0.505659   0.104147   0.359614
S    7.468611  22.418323  18.342649   0.103718   0.035269  -0.034160
S   10.269735  24.028807  18.340767  -0.287992   0.163746  -0.065717
S   10.259856  24.033884  15.143345  -0.080318   0.171883  -0.058603
S    7.515919  22.430585  15.147393  -0.511372  -0.127367  -0.160081
Mo  11.159005  22.446636  16.740405   0.664664  -0.407109  -0.022961
Mo  13.970608  24.025894  16.731090  -0.135746   0.221777   0.630788
S   13.015796  22.413806  18.340861   0.113616   0.223400  -0.071330
S   15.787988  24.024352  18.356896   0.331705   0.104046  -0.337010
S   15.824537  24.031930  15.140364   0.036665   0.025197   0.138053
S   13.055231  22.454516  15.156008  -0.332378  -0.367744  -0.116229
Mo  16.743832  22.427001  16.746480  -0.133810   0.040009   0.229773
Mo  19.512945  24.022114  16.749805   0.053458   0.767525   0.165076
S   18.590294  22.430470  18.354875   0.009862  -0.042000  -0.015606
S   21.381092  24.063307  18.339053  -0.140145  -0.151910   0.062562
S   21.365789  24.045997  15.154542  -0.017476  -0.027855  -0.012370
S   18.602863  22.451690  15.179479  -0.082809  -0.379671  -0.428605
Mo  22.282046  22.436419  16.751211   0.459647  -0.051253   0.053155
Mo  25.078689  24.037700  16.756548  -0.578985   0.103866  -0.155414
S   24.151022  22.430980  18.373071  -0.120688  -0.024808  -0.435176
S   26.898076  24.039420  18.331339   0.439792   0.123864   0.273876
S   26.917268  24.033570  15.168289   0.109233   0.368288  -0.198093
S   24.153353  22.436571  15.149406  -0.095573  -0.069598   0.227084
Mo  27.834587  22.445622  16.735252   0.444926  -0.210246   0.522733
Mo  30.629615  24.050098  16.749571   0.004609   0.257422   0.222596
S   29.707159  22.468130  18.368388  -0.189705  -0.242785  -0.430542
S   32.466835  24.042706  18.348364   0.170042  -0.055091   0.026762
S   32.486331  24.050582  15.142267   0.014365  -0.021282   0.300301
S   29.694896  22.478049  15.148176   0.102433  -0.412313   0.213724
