64
Lattice="10.862 0 0 0 10.862 0 0 0 10.862 " PBC="1 1 1" Properties=species:S:1:pos:R:3:force:R:3 Energy="-272.42889"
Si    1.08699e+01  -4.20199e-02   1.07996e+01  2.20512e-02   1.51149e+00  -3.88977e-02
Si    2.58926e+00   2.78052e+00  -1.39593e-03  8.10141e-01  -1.24719e+00  -2.08758e-01
Si    1.09340e+01   2.79775e+00   2.68485e+00 -2.80682e-01  -1.35182e+00   2.85280e-01
Si    2.78443e+00  -2.48951e-03   2.79580e+00 -7.82129e-01   7.88056e-02  -2.03905e-01
Si    1.35503e+00   1.28984e+00   1.39591e+00  1.88528e-01   4.17038e-01  -4.20778e-01
Si    4.01058e+00   4.05717e+00   1.31825e+00  1.28453e-01   4.12616e-01   6.79169e-01
Si    1.31134e+00   4.05657e+00   4.18647e+00  1.35227e+00   8.42998e-02  -9.26991e-01
Si    4.08316e+00   1.36895e+00   4.14670e+00  5.56300e-01  -1.26922e-01  -2.25283e-01
Si    5.41222e+00   1.07896e+01   1.09244e+01 -1.09324e+00   1.04236e-01  -4.52515e-01
Si    8.16418e+00   2.65424e+00   1.09087e+01 -4.82632e-01   5.83148e-03  -2.07760e+00
Si    5.36683e+00   2.72239e+00   2.70035e+00  4.79537e-01  -1.06699e+00  -4.45521e-01
C    8.19408e+00   1.08616e+01   2.64395e+00 -2.67026e-01  -3.92955e-01   5.16582e-03
Si    6.78254e+00   1.27326e+00   1.31466e+00 -4.46977e-01   1.05058e+00   1.01459e+00
Si    9.51490e+00   3.97871e+00   1.33263e+00  3.25397e-01   1.25051e+00  -9.27610e-02
Si    6.79497e+00   3.95420e+00   4.06542e+00 -1.42953e+00   3.59371e-01   6.19683e-01
Si    9.50184e+00   1.39267e+00   3.93446e+00  1.06430e-01   5.03365e-01   1.23346e+00
Si    1.08311e+01   5.53410e+00   1.09143e+01 -2.19641e-01  -9.44005e-01  -2.20972e-01
Si    2.67895e+00   8.15965e+00   1.34848e-02  3.66671e-01   7.90716e-01   8.25052e-01
Si   -4.09161e-02   8.22395e+00   2.69041e+00 -2.39025e-01  -4.46686e-01  -2.48683e-01
Si    2.70615e+00   5.41372e+00   2.77430e+00 -1.47685e-01   1.87959e-01  -7.38639e-02
Si    1.35516e+00   6.82529e+00   1.39230e+00  1.04146e-02  -4.35720e-03   5.06950e-01
Si    4.11047e+00   9.41791e+00   1.53019e+00 -4.72843e-01   3.60300e-01  -1.80520e+00
Si    1.26876e+00   9.59244e+00   4.06695e+00  7.74796e-01  -3.69443e-01   8.50232e-01
C    4.13904e+00   6.81374e+00   4.06377e+00 -9.37815e-01  -1.52482e-01  -4.80170e-02
Si    5.46350e+00   5.40901e+00   5.61699e-02 -5.30576e-01   8.40196e-02  -4.48148e-01
Si    8.05160e+00   8.04856e+00   5.00546e-02  5.65470e-01   1.00978e+00  -3.45266e-01
Si    5.52644e+00   8.05991e+00   2.71424e+00  4.71998e-01   6.14675e-01   1.09958e+00
Si    8.09539e+00   5.18038e+00   2.73493e+00  1.50899e+00   1.65899e+00  -3.32183e-01
Si    6.85115e+00   6.65866e+00   1.46806e+00 -5.01094e-01  -1.99957e-01  -7.67642e-01
Si    9.49164e+00   9.54394e+00   1.22918e+00 -4.28349e-01  -1.14523e+00   7.75558e-01
Si    6.93129e+00   9.47006e+00   4.07182e+00 -5.38255e-01  -3.12750e-01  -7.06112e-01
Si    9.45474e+00   6.74002e+00   3.97755e+00  6.39942e-01  -7.15496e-01   3.04976e-01
Si   -9.26225e-02   9.82621e-02   5.46668e+00  1.13188e-01  -5.65146e-01  -1.00007e+00
Si    2.72276e+00   2.70205e+00   5.50377e+00 -1.91892e-01   2.37605e-01  -4.15003e-01
Si    1.09006e+01   2.81115e+00   8.09420e+00  4.77521e-01  -3.04592e-01   8.76114e-01
Si    2.63815e+00   9.25758e-02   8.08371e+00  8.37312e-01  -1.09962e+00   3.12564e-01
Si    1.29031e+00   1.39708e+00   6.77271e+00  2.56466e-01   4.08914e-01  -8.03143e-03
Si    4.10800e+00   4.07545e+00   6.78062e+00 -3.21328e-01   6.71510e-01   4.81479e-01
Si    1.33655e+00   4.19463e+00   9.51522e+00 -3.74252e-01  -2.88609e-03  -2.01544e-01
Si    4.02017e+00   1.33863e+00   9.50812e+00  1.22600e-02   4.46657e-01   7.11490e-01
Si    5.58925e+00  -9.90293e-03   5.38052e+00 -1.21168e+00   2.98443e-01   8.25907e-02
Si    8.12405e+00   2.69049e+00   5.42817e+00  1.03062e+00  -1.90342e-01   1.15034e-02
Si    5.41311e+00   2.71611e+00   8.17005e+00 -9.40033e-01  -4.69003e-01  -4.56167e-01
C    8.13746e+00   1.56631e-02   8.18234e+00 -5.08745e-01   8.08146e-02  -6.65697e-01
Si    6.73839e+00   1.41857e+00   6.78444e+00  1.09425e+00  -9.01860e-01   5.89977e-01
Si    9.52958e+00   4.04451e+00   6.81241e+00 -5.53528e-01   3.03582e-01  -1.17501e+00
Si    6.71623e+00   4.04331e+00   9.44917e+00  1.69517e+00   2.23959e-01   1.56232e+00
Si    9.58375e+00   1.40600e+00   9.38541e+00 -5.82259e-01  -2.65509e-01   1.49451e+00
Si    1.08565e+01   5.41033e+00   5.44115e+00 -5.67697e-01   1.23435e+00   2.33092e-01
Si    2.78228e+00   8.21961e+00   5.41274e+00 -8.40222e-01   1.28399e-01  -7.28743e-01
Si    1.07908e+01   8.19900e+00   8.08132e+00  8.84873e-01  -5.34081e-01   1.27021e+00
Si    2.76769e+00   5.50318e+00   8.19283e+00 -3.13686e-01   9.02925e-02  -8.08844e-01
Si    1.37193e+00   6.88303e+00   6.75033e+00  1.20661e-01  -7.80477e-01   3.57705e-01
Si    4.10913e+00   9.60385e+00   6.72173e+00  7.26362e-02  -1.19276e-01   8.08844e-01
C    1.35137e+00   9.53981e+00   9.48303e+00  1.38700e-01  -7.01077e-01  -8.33977e-01
Si    4.07326e+00   6.84492e+00   9.60865e+00  8.06560e-01  -3.96432e-01  -7.79410e-01
Si    5.43447e+00   5.43639e+00   5.36088e+00  1.05125e+00  -5.88982e-01   8.42410e-01
Si    8.19853e+00   8.05968e+00   5.42050e+00  4.75263e-01   8.69562e-01  -2.07440e-01
Si    5.42052e+00   8.16010e+00   8.11935e+00  2.43288e-01  -2.87820e-01  -1.90204e-01
Si    8.23261e+00   5.36515e+00   8.17716e+00 -1.18266e+00   3.80891e-01  -1.14765e-01
Si    6.90282e+00   6.74996e+00   6.75362e+00 -1.47083e+00  -4.26810e-01   8.54180e-01
Si    9.47885e+00   9.51360e+00   6.78234e+00 -7.58140e-01   4.70274e-01  -4.16790e-01
Si    6.74641e+00   9.49460e+00   9.54064e+00  4.19989e-01  -3.71642e-01  -2.19099e-01
Si    9.45233e+00   6.81490e+00   9.52829e+00  5.77054e-01   1.52024e-01  -3.78803e-01
