64
Lattice="10.862 0 0 0 10.862 0 0 0 10.862 " PBC="1 1 1" Properties=species:S:1:pos:R:3:force:R:3 Energy="-272.98168"
Si    1.08706e+01  -2.29312e-02   1.09753e+01  1.51360e-01   1.29077e+00  -1.52733e+00
Si    2.73391e+00   2.70065e+00  -9.06342e-03  6.12039e-01  -5.38713e-01   1.00476e+00
Si    1.08199e+01   2.78258e+00   2.68842e+00  4.50514e-02  -2.23850e-01   4.51355e-01
Si    2.73507e+00   4.06389e-02   2.68650e+00  1.21082e-01  -1.83448e-01   9.32376e-01
C    1.35173e+00   1.41080e+00   1.44068e+00  5.85101e-02  -1.56081e-01  -1.02932e+00
Si    4.15516e+00   4.11626e+00   1.27052e+00 -7.17150e-01  -1.96152e-01   6.29056e-03
Si    1.29010e+00   4.08558e+00   4.08204e+00  9.74443e-01   3.78931e-01  -4.65320e-01
Si    4.03287e+00   1.51702e+00   4.07380e+00  2.41665e-01  -1.78825e+00   7.27809e-03
Si    5.50415e+00   1.08921e+01   1.09033e+01 -4.59559e-01   2.16510e-01  -5.99524e-01
Si    8.08230e+00   2.73974e+00   1.09527e+01 -2.35809e-01  -6.83882e-01  -1.05173e+00
Si    5.40989e+00   2.80707e+00   2.73622e+00  4.84655e-01  -2.29879e-01  -3.77130e-01
Si    8.16743e+00   1.08698e+01   2.75252e+00  2.97603e-02  -4.54039e-01   4.38043e-01
Si    6.80158e+00   1.35230e+00   1.46696e+00 -5.10308e-01   5.66508e-01  -2.55501e-01
Si    9.37403e+00   4.05788e+00   1.40696e+00  7.13992e-01   1.55634e+00   2.00805e-01
Si    6.77232e+00   4.15275e+00   4.05958e+00 -1.01318e+00   5.19067e-01   1.06870e+00
C    9.53541e+00   1.41765e+00   4.04694e+00 -1.84262e-01  -6.32007e-01   2.67453e-01
Si    1.08894e+01   5.36357e+00   1.09343e+01 -9.53305e-01   1.48779e-01  -6.62152e-01
Si    2.71363e+00   8.08649e+00  -5.10257e-02  2.45951e-01   5.33613e-01   5.70378e-01
Si    1.28814e-02   8.10487e+00   2.79206e+00 -1.03290e-01   6.97331e-01  -1.83173e+00
Si    2.71837e+00   5.43762e+00   2.60184e+00  4.58488e-01  -1.00881e+00   1.60455e+00
Si    1.36878e+00   6.74831e+00   1.37776e+00 -5.62436e-01   9.50964e-01  -5.70933e-01
Si    4.09700e+00   9.55798e+00   1.31785e+00 -8.10593e-01  -4.46633e-01  -4.65980e-01
Si    1.40897e+00   9.42544e+00   4.05412e+00  6.32419e-01   5.64328e-01  -2.83858e-01
Si    4.10437e+00   6.78860e+00   3.98012e+00 -8.11835e-01   3.40268e-01   4.72911e-01
Si    5.51453e+00   5.43427e+00  -9.65005e-02 -9.93830e-01   1.12890e+00   5.18954e-01
Si    8.17637e+00   8.19218e+00  -5.02392e-02 -7.05163e-02  -3.16919e-01   1.93546e-01
Si    5.39754e+00   8.20448e+00   2.65464e+00  6.31803e-01   2.49553e-01   9.23714e-01
Si    8.03543e+00   5.54799e+00   2.74274e+00  1.13916e+00  -4.08040e-01  -4.64795e-01
Si    6.75763e+00   6.87600e+00   1.34293e+00  2.15844e-01  -1.83011e-01  -9.80749e-01
C    9.51024e+00   9.53541e+00   1.33235e+00 -1.59666e-01  -1.17020e+00   1.59728e+00
Si    6.78385e+00   9.49177e+00   4.15971e+00 -2.23425e-01  -8.74425e-02  -1.08958e+00
Si    9.46887e+00   6.86346e+00   4.07202e+00 -7.17944e-02  -1.61371e+00   5.93209e-01
Si    5.84751e-02  -6.96244e-02   5.31462e+00 -4.35583e-01   7.03869e-01   6.18022e-01
Si    2.66905e+00   2.72471e+00   5.47343e+00 -5.99184e-01   1.89938e-01  -2.35962e-01
Si    1.08286e+01   2.64356e+00   8.15069e+00  6.21847e-01  -5.83702e-01   1.93889e-01
Si    2.69535e+00   8.89280e-02   8.17185e+00  8.62088e-02  -1.84017e+00   7.31498e-01
Si    1.36007e+00   1.22777e+00   6.78619e+00 -8.70852e-01   1.76346e+00  -6.16356e-01
Si    4.08996e+00   4.07930e+00   6.72275e+00  9.52266e-02  -8.19671e-01   1.24282e+00
Si    1.35234e+00   3.94019e+00   9.57792e+00 -7.59233e-01   8.33868e-01  -8.85000e-01
Si    4.09350e+00   1.35894e+00   9.49499e+00  7.23679e-01   3.51873e-01   3.55377e-01
Si    5.35071e+00  -1.90501e-02   5.42690e+00  3.81758e-02   7.68951e-01  -3.13179e-01
Si    8.09918e+00   2.74572e+00   5.36865e+00  5.74354e-01  -4.71762e-01   3.67605e-01
C    5.50996e+00   2.70071e+00   8.12823e+00 -7.11421e-01  -4.34436e-01  -8.98137e-01
Si    8.16609e+00  -1.57494e-02   8.13037e+00  6.11616e-01  -3.91077e-01  -1.77962e-01
Si    6.84987e+00   1.25605e+00   6.72079e+00 -8.53129e-01   1.10434e+00   2.26867e-01
Si    9.53345e+00   3.98061e+00   6.77859e+00 -8.01219e-01   4.83960e-01  -1.17999e-01
Si    6.78385e+00   4.06483e+00   9.48696e+00  1.20934e+00  -2.38081e-01  -1.84825e-01
Si    9.42467e+00   1.36164e+00   9.54232e+00  7.38793e-01  -3.21302e-01   7.41018e-01
Si    1.07950e+01   5.40225e+00   5.44638e+00  5.99360e-01   8.67526e-01  -2.12099e-02
Si    2.74569e+00   8.10777e+00   5.45158e+00 -8.36755e-03  -3.87478e-01  -3.98498e-01
C    1.09358e+01   8.07708e+00   8.06821e+00  8.65545e-02   8.63913e-01   9.71933e-01
Si    2.70664e+00   5.26522e+00   8.17694e+00 -3.64082e-02   3.60222e-01  -1.25221e-01
Si    1.44321e+00   6.69986e+00   6.83633e+00 -5.91952e-01  -4.50647e-01  -1.06598e+00
Si    3.98057e+00   9.55196e+00   6.80313e+00  6.37694e-01  -3.77256e-01   2.35405e-01
Si    1.33122e+00   9.49749e+00   9.53191e+00  2.55721e-01   1.25510e-01  -4.81926e-01
Si    4.03213e+00   6.73500e+00   9.39925e+00  5.93527e-01  -7.41217e-02   8.77090e-01
Si    5.36552e+00   5.55381e+00   5.51075e+00  1.45805e+00  -5.74016e-01  -9.49913e-01
Si    8.11682e+00   8.07091e+00   5.47149e+00  5.96012e-01   1.59499e+00   6.45565e-01
Si    5.39132e+00   8.17028e+00   8.13755e+00 -2.02935e-01   6.83964e-01   3.80599e-01
Si    8.20385e+00   5.39076e+00   8.12896e+00  7.73413e-02   6.10681e-02   6.28329e-01
Si    6.81014e+00   6.82820e+00   6.92450e+00 -3.39664e-01  -7.26523e-01  -1.05084e+00
Si    9.61890e+00   9.50268e+00   6.77065e+00 -1.25284e+00  -5.28147e-01  -3.82532e-01
Si    6.79896e+00   9.53872e+00   9.48647e+00 -2.82715e-01  -3.10328e-01  -2.85606e-02
Si    9.57379e+00   6.81824e+00   9.47305e+00 -1.33267e-01  -1.04954e+00   5.22115e-01
