4
Lattice="  2.468322  0.000000  0.000000  1.234161  2.137630  0.000000  0.000000  0.000000 30.000000" PBC="1 1 1" Properties="species:S:1:pos:R:3:vel:R:3" Energy="-0.09586739"
C   0.000000e+00  0.000000e+00  0.000000e+00  1.064200e-02  1.468100e-02  1.423700e-02
C   1.234160e+00  7.125400e-01  0.000000e+00  2.461000e-03 -6.546000e-03  5.548000e-03
C   2.674020e+00  1.781360e+00  3.355150e+00 -2.461000e-03  6.546000e-03 -5.548000e-03
C   2.056900e-01  3.562700e-01  3.355150e+00 -1.064200e-02 -1.468100e-02 -1.423700e-02
