4
Lattice="  2.468322  0.000000  0.000000  1.234161  2.137630  0.000000  0.000000  0.000000 30.000000" PBC="1 1 1" Properties="species:S:1:pos:R:3:vel:R:3" Energy="-0.09586739"
C   0.000000e+00  0.000000e+00  0.000000e+00  6.899000e-03 -1.140000e-03  5.559000e-03
C   1.234160e+00  7.125400e-01  0.000000e+00 -7.392000e-03  1.655600e-02  1.424600e-02
C   1.028470e+00  1.068810e+00  3.355150e+00  7.392000e-03 -1.655600e-02 -1.424600e-02
C   2.262630e+00  1.781360e+00  3.355150e+00 -6.899000e-03  1.140000e-03 -5.559000e-03
