4
Lattice="  2.468322  0.000000  0.000000  1.234161  2.137630  0.000000  0.000000  0.000000 30.000000" PBC="1 1 1" Properties="species:S:1:pos:R:3:vel:R:3" Energy="-0.07705064"
C   0.000000e+00  0.000000e+00  0.000000e+00  1.886300e-02  6.105000e-03 -2.182100e-02
C   1.234160e+00  7.125400e-01  0.000000e+00 -4.144000e-03  1.938800e-02 -2.182100e-02
C   1.028470e+00  1.781360e+00  3.355150e+00  4.144000e-03 -1.938800e-02  2.182100e-02
C   1.028470e+00  3.562700e-01  3.355150e+00 -1.886300e-02 -6.105000e-03  2.182100e-02
