4
Lattice="  2.468322  0.000000  0.000000  1.234161  2.137630  0.000000  0.000000  0.000000 30.000000" PBC="1 1 1" Properties="species:S:1:pos:R:3:vel:R:3" Energy="-0.08673924"
C   0.000000e+00  0.000000e+00  0.000000e+00 -2.471000e-03 -1.426000e-03 -7.511000e-03
C   1.234160e+00  7.125400e-01  0.000000e+00 -2.506100e-02 -1.446900e-02 -2.539000e-03
C   6.170800e-01  3.562700e-01  3.355150e+00  2.506100e-02  1.446900e-02  2.539000e-03
C   1.851240e+00  1.068810e+00  3.355150e+00  2.471000e-03  1.426000e-03  7.511000e-03
